M 10.00000 0 (514.36, 284.34, 0.00), (296.70, 911.80), 0.01
M 10.00000 1 (643.66, 149.92, 0.00), (332.51, 13.94), 0.82
M 10.00000 2 (725.97, 148.70, 0.00), (410.03, 227.82), 0.35
M 10.00000 3 (665.33, 725.17, 0.00), (664.56, 587.74), 0.31
M 10.00000 4 (682.88, 101.17, 0.00), (228.96, 346.94), 0.28
M 10.00000 5 (366.60, 469.97, 0.00), (613.92, 774.60), 0.35
M 10.00000 6 (835.60, 721.86, 0.00), (328.45, 734.38), 0.12
M 10.00000 7 (937.16, 560.16, 0.00), (87.78, 627.89), 0.78
M 10.00000 8 (2.25, 360.67, 0.00), (164.88, 626.71), 0.42
M 10.00000 9 (456.68, 486.65, 0.00), (833.66, 878.62), 0.75
s 25.561746129 _1_ AGT  --- 0 cbr 512 [0 0 0 0] ------- [1:0 2:0 32 0] [0] 0 1
r 25.561746129 _1_ RTR  --- 0 cbr 512 [0 0 0 0] ------- [1:0 2:0 32 0] [0] 0 1
s 25.561746129 _1_ RTR  --- 0 AODV 48 [0 0 0 0] ------- [1:255 -1:255 30 0] [0x2 1 1 [2 0] [1 4]] (REQUEST)
s 25.561861129 _1_ MAC  --- 0 AODV 106 [0 ffffffff 1 800] ------- [1:255 -1:255 30 0] [0x2 1 1 [2 0] [1 4]] (REQUEST)
r 25.562709338 _4_ MAC  --- 0 AODV 48 [0 ffffffff 1 800] ------- [1:255 -1:255 30 0] [0x2 1 1 [2 0] [1 4]] (REQUEST)
r 25.562709425 _2_ MAC  --- 0 AODV 48 [0 ffffffff 1 800] ------- [1:255 -1:255 30 0] [0x2 1 1 [2 0] [1 4]] (REQUEST)
r 25.562709738 _0_ MAC  --- 0 AODV 48 [0 ffffffff 1 800] ------- [1:255 -1:255 30 0] [0x2 1 1 [2 0] [1 4]] (REQUEST)
r 25.562734338 _4_ RTR  --- 0 AODV 48 [0 ffffffff 1 800] ------- [1:255 -1:255 30 0] [0x2 1 1 [2 0] [1 4]] (REQUEST)
r 25.562734425 _2_ RTR  --- 0 AODV 48 [0 ffffffff 1 800] ------- [1:255 -1:255 30 0] [0x2 1 1 [2 0] [1 4]] (REQUEST)
s 25.562734425 _2_ RTR  --- 0 AODV 44 [0 0 0 0] ------- [2:255 1:255 30 1] [0x4 1 [2 4] 10.000000] (REPLY)
r 25.562734738 _0_ RTR  --- 0 AODV 48 [0 ffffffff 1 800] ------- [1:255 -1:255 30 0] [0x2 1 1 [2 0] [1 4]] (REQUEST)
s 25.562789425 _2_ MAC  --- 0 ARP 86 [0 ffffffff 2 806] ------- [REQUEST 2/2 0/1]
r 25.563477634 _4_ MAC  --- 0 ARP 28 [0 ffffffff 2 806] ------- [REQUEST 2/2 0/1]
r 25.563477721 _1_ MAC  --- 0 ARP 28 [0 ffffffff 2 806] ------- [REQUEST 2/2 0/1]
r 25.563478246 _0_ MAC  --- 0 ARP 28 [0 ffffffff 2 806] ------- [REQUEST 2/2 0/1]
s 25.563615565 _4_ RTR  --- 0 AODV 48 [0 ffffffff 1 800] ------- [4:255 -1:255 29 0] [0x2 2 1 [2 0] [1 4]] (REQUEST)
s 25.563890565 _4_ MAC  --- 0 AODV 106 [0 ffffffff 4 800] ------- [4:255 -1:255 29 0] [0x2 2 1 [2 0] [1 4]] (REQUEST)
r 25.564738773 _2_ MAC  --- 0 AODV 48 [0 ffffffff 4 800] ------- [4:255 -1:255 29 0] [0x2 2 1 [2 0] [1 4]] (REQUEST)
r 25.564738774 _1_ MAC  --- 0 AODV 48 [0 ffffffff 4 800] ------- [4:255 -1:255 29 0] [0x2 2 1 [2 0] [1 4]] (REQUEST)
r 25.564739381 _0_ MAC  --- 0 AODV 48 [0 ffffffff 4 800] ------- [4:255 -1:255 29 0] [0x2 2 1 [2 0] [1 4]] (REQUEST)
r 25.564763773 _2_ RTR  --- 0 AODV 48 [0 ffffffff 4 800] ------- [4:255 -1:255 29 0] [0x2 2 1 [2 0] [1 4]] (REQUEST)
r 25.564763774 _1_ RTR  --- 0 AODV 48 [0 ffffffff 4 800] ------- [4:255 -1:255 29 0] [0x2 2 1 [2 0] [1 4]] (REQUEST)
r 25.564764381 _0_ RTR  --- 0 AODV 48 [0 ffffffff 4 800] ------- [4:255 -1:255 29 0] [0x2 2 1 [2 0] [1 4]] (REQUEST)
s 25.564968774 _1_ MAC  --- 0 RTS 44 [52e 2 1 0] 
r 25.565321070 _2_ MAC  --- 0 RTS 44 [52e 2 1 0] 
s 25.565331070 _2_ MAC  --- 0 CTS 38 [3f4 1 0 0] 
r 25.565635366 _1_ MAC  --- 0 CTS 38 [3f4 1 0 0] 
s 25.565645366 _1_ MAC  --- 0 ARP 86 [13a 2 1 806] ------- [REPLY 1/1 2/2]
r 25.566333662 _2_ MAC  --- 0 ARP 28 [13a 2 1 806] ------- [REPLY 1/1 2/2]
s 25.566343662 _2_ MAC  --- 0 ACK 38 [0 1 0 0] 
r 25.566647959 _1_ MAC  --- 0 ACK 38 [0 1 0 0] 
s 25.567057662 _2_ MAC  --- 0 RTS 44 [5ae 1 2 0] 
s 25.567146471 _0_ RTR  --- 0 AODV 48 [0 ffffffff 1 800] ------- [0:255 -1:255 29 0] [0x2 2 1 [2 0] [1 4]] (REQUEST)
r 25.567409959 _1_ MAC  --- 0 RTS 44 [5ae 1 2 0] 
s 25.567419959 _1_ MAC  --- 0 CTS 38 [474 2 0 0] 
r 25.567724255 _2_ MAC  --- 0 CTS 38 [474 2 0 0] 
s 25.567734255 _2_ MAC  --- 0 AODV 102 [13a 1 2 800] ------- [2:255 1:255 30 1] [0x4 1 [2 4] 10.000000] (REPLY)
r 25.568550551 _1_ MAC  --- 0 AODV 44 [13a 1 2 800] ------- [2:255 1:255 30 1] [0x4 1 [2 4] 10.000000] (REPLY)
s 25.568560551 _1_ MAC  --- 0 ACK 38 [0 2 0 0] 
r 25.568575551 _1_ RTR  --- 0 AODV 44 [13a 1 2 800] ------- [2:255 1:255 30 1] [0x4 1 [2 4] 10.000000] (REPLY)
s 25.568575551 _1_ RTR  --- 0 cbr 532 [0 0 0 0] ------- [1:0 2:0 30 2] [0] 0 1
r 25.568864847 _2_ MAC  --- 0 ACK 38 [0 2 0 0] 
s 25.568954551 _1_ MAC  --- 0 RTS 44 [14ee 2 1 0] 
r 25.569306847 _2_ MAC  --- 0 RTS 44 [14ee 2 1 0] 
s 25.569316847 _2_ MAC  --- 0 CTS 38 [13b4 1 0 0] 
r 25.569621143 _1_ MAC  --- 0 CTS 38 [13b4 1 0 0] 
s 25.569631143 _1_ MAC  --- 0 cbr 590 [13a 2 1 800] ------- [1:0 2:0 30 2] [0] 0 1
r 25.574351440 _2_ MAC  --- 0 cbr 532 [13a 2 1 800] ------- [1:0 2:0 30 2] [0] 1 1
s 25.574361440 _2_ MAC  --- 0 ACK 38 [0 1 0 0] 
r 25.574376440 _2_ AGT  --- 0 cbr 532 [13a 2 1 800] ------- [1:0 2:0 30 2] [0] 1 1
r 25.574665736 _1_ MAC  --- 0 ACK 38 [0 1 0 0] 
s 25.574936261 _0_ MAC  --- 0 AODV 106 [0 ffffffff 0 800] ------- [0:255 -1:255 29 0] [0x2 2 1 [2 0] [1 4]] (REQUEST)
r 25.575784870 _1_ MAC  --- 0 AODV 48 [0 ffffffff 0 800] ------- [0:255 -1:255 29 0] [0x2 2 1 [2 0] [1 4]] (REQUEST)
r 25.575784982 _9_ MAC  --- 0 AODV 48 [0 ffffffff 0 800] ------- [0:255 -1:255 29 0] [0x2 2 1 [2 0] [1 4]] (REQUEST)
r 25.575785055 _5_ MAC  --- 0 AODV 48 [0 ffffffff 0 800] ------- [0:255 -1:255 29 0] [0x2 2 1 [2 0] [1 4]] (REQUEST)
r 25.575785077 _4_ MAC  --- 0 AODV 48 [0 ffffffff 0 800] ------- [0:255 -1:255 29 0] [0x2 2 1 [2 0] [1 4]] (REQUEST)
r 25.575785082 _2_ MAC  --- 0 AODV 48 [0 ffffffff 0 800] ------- [0:255 -1:255 29 0] [0x2 2 1 [2 0] [1 4]] (REQUEST)
r 25.575809870 _1_ RTR  --- 0 AODV 48 [0 ffffffff 0 800] ------- [0:255 -1:255 29 0] [0x2 2 1 [2 0] [1 4]] (REQUEST)
r 25.575809982 _9_ RTR  --- 0 AODV 48 [0 ffffffff 0 800] ------- [0:255 -1:255 29 0] [0x2 2 1 [2 0] [1 4]] (REQUEST)
r 25.575810055 _5_ RTR  --- 0 AODV 48 [0 ffffffff 0 800] ------- [0:255 -1:255 29 0] [0x2 2 1 [2 0] [1 4]] (REQUEST)
r 25.575810077 _4_ RTR  --- 0 AODV 48 [0 ffffffff 0 800] ------- [0:255 -1:255 29 0] [0x2 2 1 [2 0] [1 4]] (REQUEST)
r 25.575810082 _2_ RTR  --- 0 AODV 48 [0 ffffffff 0 800] ------- [0:255 -1:255 29 0] [0x2 2 1 [2 0] [1 4]] (REQUEST)
s 25.580046623 _5_ RTR  --- 0 AODV 48 [0 ffffffff 0 800] ------- [5:255 -1:255 28 0] [0x2 3 1 [2 0] [1 4]] (REQUEST)
s 25.580601623 _5_ MAC  --- 0 AODV 106 [0 ffffffff 5 800] ------- [5:255 -1:255 28 0] [0x2 3 1 [2 0] [1 4]] (REQUEST)
r 25.581449946 _9_ MAC  --- 0 AODV 48 [0 ffffffff 5 800] ------- [5:255 -1:255 28 0] [0x2 3 1 [2 0] [1 4]] (REQUEST)
r 25.581450417 _0_ MAC  --- 0 AODV 48 [0 ffffffff 5 800] ------- [5:255 -1:255 28 0] [0x2 3 1 [2 0] [1 4]] (REQUEST)
r 25.581474946 _9_ RTR  --- 0 AODV 48 [0 ffffffff 5 800] ------- [5:255 -1:255 28 0] [0x2 3 1 [2 0] [1 4]] (REQUEST)
r 25.581475417 _0_ RTR  --- 0 AODV 48 [0 ffffffff 5 800] ------- [5:255 -1:255 28 0] [0x2 3 1 [2 0] [1 4]] (REQUEST)
s 25.584407259 _9_ RTR  --- 0 AODV 48 [0 ffffffff 0 800] ------- [9:255 -1:255 28 0] [0x2 3 1 [2 0] [1 4]] (REQUEST)
s 25.584802259 _9_ MAC  --- 0 AODV 106 [0 ffffffff 9 800] ------- [9:255 -1:255 28 0] [0x2 3 1 [2 0] [1 4]] (REQUEST)
r 25.585650582 _5_ MAC  --- 0 AODV 48 [0 ffffffff 9 800] ------- [9:255 -1:255 28 0] [0x2 3 1 [2 0] [1 4]] (REQUEST)
r 25.585650980 _0_ MAC  --- 0 AODV 48 [0 ffffffff 9 800] ------- [9:255 -1:255 28 0] [0x2 3 1 [2 0] [1 4]] (REQUEST)
r 25.585675582 _5_ RTR  --- 0 AODV 48 [0 ffffffff 9 800] ------- [9:255 -1:255 28 0] [0x2 3 1 [2 0] [1 4]] (REQUEST)
r 25.585675980 _0_ RTR  --- 0 AODV 48 [0 ffffffff 9 800] ------- [9:255 -1:255 28 0] [0x2 3 1 [2 0] [1 4]] (REQUEST)
s 25.686831023 _1_ AGT  --- 1 cbr 512 [0 0 0 0] ------- [1:0 2:0 32 0] [1] 0 1
r 25.686831023 _1_ RTR  --- 1 cbr 512 [0 0 0 0] ------- [1:0 2:0 32 0] [1] 0 1
s 25.686831023 _1_ RTR  --- 1 cbr 532 [0 0 0 0] ------- [1:0 2:0 30 2] [1] 0 1
s 25.686926023 _1_ MAC  --- 0 RTS 44 [14ee 2 1 0] 
r 25.687278319 _2_ MAC  --- 0 RTS 44 [14ee 2 1 0] 
s 25.687288319 _2_ MAC  --- 0 CTS 38 [13b4 1 0 0] 
r 25.687592616 _1_ MAC  --- 0 CTS 38 [13b4 1 0 0] 
s 25.687602616 _1_ MAC  --- 1 cbr 590 [13a 2 1 800] ------- [1:0 2:0 30 2] [1] 0 1
r 25.692322912 _2_ MAC  --- 1 cbr 532 [13a 2 1 800] ------- [1:0 2:0 30 2] [1] 1 1
s 25.692332912 _2_ MAC  --- 0 ACK 38 [0 1 0 0] 
r 25.692347912 _2_ AGT  --- 1 cbr 532 [13a 2 1 800] ------- [1:0 2:0 30 2] [1] 1 1
r 25.692637208 _1_ MAC  --- 0 ACK 38 [0 1 0 0] 
s 25.876353010 _1_ AGT  --- 2 cbr 512 [0 0 0 0] ------- [1:0 2:0 32 0] [2] 0 1
r 25.876353010 _1_ RTR  --- 2 cbr 512 [0 0 0 0] ------- [1:0 2:0 32 0] [2] 0 1
s 25.876353010 _1_ RTR  --- 2 cbr 532 [0 0 0 0] ------- [1:0 2:0 30 2] [2] 0 1
s 25.876608010 _1_ MAC  --- 0 RTS 44 [14ee 2 1 0] 
r 25.876960307 _2_ MAC  --- 0 RTS 44 [14ee 2 1 0] 
s 25.876970307 _2_ MAC  --- 0 CTS 38 [13b4 1 0 0] 
r 25.877274603 _1_ MAC  --- 0 CTS 38 [13b4 1 0 0] 
s 25.877284603 _1_ MAC  --- 2 cbr 590 [13a 2 1 800] ------- [1:0 2:0 30 2] [2] 0 1
r 25.882004900 _2_ MAC  --- 2 cbr 532 [13a 2 1 800] ------- [1:0 2:0 30 2] [2] 1 1
s 25.882014900 _2_ MAC  --- 0 ACK 38 [0 1 0 0] 
r 25.882029900 _2_ AGT  --- 2 cbr 532 [13a 2 1 800] ------- [1:0 2:0 30 2] [2] 1 1
r 25.882319197 _1_ MAC  --- 0 ACK 38 [0 1 0 0] 
s 26.117881994 _1_ AGT  --- 3 cbr 512 [0 0 0 0] ------- [1:0 2:0 32 0] [3] 0 1
r 26.117881994 _1_ RTR  --- 3 cbr 512 [0 0 0 0] ------- [1:0 2:0 32 0] [3] 0 1
s 26.117881994 _1_ RTR  --- 3 cbr 532 [0 0 0 0] ------- [1:0 2:0 30 2] [3] 0 1
s 26.118496994 _1_ MAC  --- 0 RTS 44 [14ee 2 1 0] 
r 26.118849291 _2_ MAC  --- 0 RTS 44 [14ee 2 1 0] 
s 26.118859291 _2_ MAC  --- 0 CTS 38 [13b4 1 0 0] 
r 26.119163588 _1_ MAC  --- 0 CTS 38 [13b4 1 0 0] 
s 26.119173588 _1_ MAC  --- 3 cbr 590 [13a 2 1 800] ------- [1:0 2:0 30 2] [3] 0 1
r 26.123893885 _2_ MAC  --- 3 cbr 532 [13a 2 1 800] ------- [1:0 2:0 30 2] [3] 1 1
s 26.123903885 _2_ MAC  --- 0 ACK 38 [0 1 0 0] 
r 26.123918885 _2_ AGT  --- 3 cbr 532 [13a 2 1 800] ------- [1:0 2:0 30 2] [3] 1 1
r 26.124208182 _1_ MAC  --- 0 ACK 38 [0 1 0 0] 
s 26.452838295 _1_ AGT  --- 4 cbr 512 [0 0 0 0] ------- [1:0 2:0 32 0] [4] 0 1
r 26.452838295 _1_ RTR  --- 4 cbr 512 [0 0 0 0] ------- [1:0 2:0 32 0] [4] 0 1
s 26.452838295 _1_ RTR  --- 4 cbr 532 [0 0 0 0] ------- [1:0 2:0 30 2] [4] 0 1
s 26.453213295 _1_ MAC  --- 0 RTS 44 [14ee 2 1 0] 
r 26.453565592 _2_ MAC  --- 0 RTS 44 [14ee 2 1 0] 
s 26.453575592 _2_ MAC  --- 0 CTS 38 [13b4 1 0 0] 
r 26.453879890 _1_ MAC  --- 0 CTS 38 [13b4 1 0 0] 
s 26.453889890 _1_ MAC  --- 4 cbr 590 [13a 2 1 800] ------- [1:0 2:0 30 2] [4] 0 1
r 26.458610187 _2_ MAC  --- 4 cbr 532 [13a 2 1 800] ------- [1:0 2:0 30 2] [4] 1 1
s 26.458620187 _2_ MAC  --- 0 ACK 38 [0 1 0 0] 
r 26.458635187 _2_ AGT  --- 4 cbr 532 [13a 2 1 800] ------- [1:0 2:0 30 2] [4] 1 1
r 26.458924485 _1_ MAC  --- 0 ACK 38 [0 1 0 0] 
s 26.790614933 _1_ AGT  --- 5 cbr 512 [0 0 0 0] ------- [1:0 2:0 32 0] [5] 0 1
r 26.790614933 _1_ RTR  --- 5 cbr 512 [0 0 0 0] ------- [1:0 2:0 32 0] [5] 0 1
s 26.790614933 _1_ RTR  --- 5 cbr 532 [0 0 0 0] ------- [1:0 2:0 30 2] [5] 0 1
s 26.790769933 _1_ MAC  --- 0 RTS 44 [14ee 2 1 0] 
r 26.791122231 _2_ MAC  --- 0 RTS 44 [14ee 2 1 0] 
s 26.791132231 _2_ MAC  --- 0 CTS 38 [13b4 1 0 0] 
r 26.791436529 _1_ MAC  --- 0 CTS 38 [13b4 1 0 0] 
s 26.791446529 _1_ MAC  --- 5 cbr 590 [13a 2 1 800] ------- [1:0 2:0 30 2] [5] 0 1
r 26.796166827 _2_ MAC  --- 5 cbr 532 [13a 2 1 800] ------- [1:0 2:0 30 2] [5] 1 1
s 26.796176827 _2_ MAC  --- 0 ACK 38 [0 1 0 0] 
r 26.796191827 _2_ AGT  --- 5 cbr 532 [13a 2 1 800] ------- [1:0 2:0 30 2] [5] 1 1
r 26.796481125 _1_ MAC  --- 0 ACK 38 [0 1 0 0] 
s 27.141851300 _1_ AGT  --- 6 cbr 512 [0 0 0 0] ------- [1:0 2:0 32 0] [6] 0 1
r 27.141851300 _1_ RTR  --- 6 cbr 512 [0 0 0 0] ------- [1:0 2:0 32 0] [6] 0 1
s 27.141851300 _1_ RTR  --- 6 cbr 532 [0 0 0 0] ------- [1:0 2:0 30 2] [6] 0 1
s 27.142026300 _1_ MAC  --- 0 RTS 44 [14ee 2 1 0] 
r 27.142378599 _2_ MAC  --- 0 RTS 44 [14ee 2 1 0] 
s 27.142388599 _2_ MAC  --- 0 CTS 38 [13b4 1 0 0] 
r 27.142692897 _1_ MAC  --- 0 CTS 38 [13b4 1 0 0] 
s 27.142702897 _1_ MAC  --- 6 cbr 590 [13a 2 1 800] ------- [1:0 2:0 30 2] [6] 0 1
r 27.147423196 _2_ MAC  --- 6 cbr 532 [13a 2 1 800] ------- [1:0 2:0 30 2] [6] 1 1
s 27.147433196 _2_ MAC  --- 0 ACK 38 [0 1 0 0] 
r 27.147448196 _2_ AGT  --- 6 cbr 532 [13a 2 1 800] ------- [1:0 2:0 30 2] [6] 1 1
r 27.147737494 _1_ MAC  --- 0 ACK 38 [0 1 0 0] 
s 27.367903182 _1_ AGT  --- 7 cbr 512 [0 0 0 0] ------- [1:0 2:0 32 0] [7] 0 1
r 27.367903182 _1_ RTR  --- 7 cbr 512 [0 0 0 0] ------- [1:0 2:0 32 0] [7] 0 1
s 27.367903182 _1_ RTR  --- 7 cbr 532 [0 0 0 0] ------- [1:0 2:0 30 2] [7] 0 1
s 27.368178182 _1_ MAC  --- 0 RTS 44 [14ee 2 1 0] 
r 27.368530481 _2_ MAC  --- 0 RTS 44 [14ee 2 1 0] 
s 27.368540481 _2_ MAC  --- 0 CTS 38 [13b4 1 0 0] 
r 27.368844780 _1_ MAC  --- 0 CTS 38 [13b4 1 0 0] 
s 27.368854780 _1_ MAC  --- 7 cbr 590 [13a 2 1 800] ------- [1:0 2:0 30 2] [7] 0 1
r 27.373575079 _2_ MAC  --- 7 cbr 532 [13a 2 1 800] ------- [1:0 2:0 30 2] [7] 1 1
s 27.373585079 _2_ MAC  --- 0 ACK 38 [0 1 0 0] 
r 27.373600079 _2_ AGT  --- 7 cbr 532 [13a 2 1 800] ------- [1:0 2:0 30 2] [7] 1 1
r 27.373889378 _1_ MAC  --- 0 ACK 38 [0 1 0 0] 
s 27.729469421 _1_ AGT  --- 8 cbr 512 [0 0 0 0] ------- [1:0 2:0 32 0] [8] 0 1
r 27.729469421 _1_ RTR  --- 8 cbr 512 [0 0 0 0] ------- [1:0 2:0 32 0] [8] 0 1
s 27.729469421 _1_ RTR  --- 8 cbr 532 [0 0 0 0] ------- [1:0 2:0 30 2] [8] 0 1
s 27.729664421 _1_ MAC  --- 0 RTS 44 [14ee 2 1 0] 
r 27.730016720 _2_ MAC  --- 0 RTS 44 [14ee 2 1 0] 
s 27.730026720 _2_ MAC  --- 0 CTS 38 [13b4 1 0 0] 
r 27.730331019 _1_ MAC  --- 0 CTS 38 [13b4 1 0 0] 
s 27.730341019 _1_ MAC  --- 8 cbr 590 [13a 2 1 800] ------- [1:0 2:0 30 2] [8] 0 1
r 27.735061319 _2_ MAC  --- 8 cbr 532 [13a 2 1 800] ------- [1:0 2:0 30 2] [8] 1 1
s 27.735071319 _2_ MAC  --- 0 ACK 38 [0 1 0 0] 
r 27.735086319 _2_ AGT  --- 8 cbr 532 [13a 2 1 800] ------- [1:0 2:0 30 2] [8] 1 1
r 27.735375618 _1_ MAC  --- 0 ACK 38 [0 1 0 0] 
s 27.869070077 _1_ AGT  --- 9 cbr 512 [0 0 0 0] ------- [1:0 2:0 32 0] [9] 0 1
r 27.869070077 _1_ RTR  --- 9 cbr 512 [0 0 0 0] ------- [1:0 2:0 32 0] [9] 0 1
s 27.869070077 _1_ RTR  --- 9 cbr 532 [0 0 0 0] ------- [1:0 2:0 30 2] [9] 0 1
s 27.869425077 _1_ MAC  --- 0 RTS 44 [14ee 2 1 0] 
r 27.869777377 _2_ MAC  --- 0 RTS 44 [14ee 2 1 0] 
s 27.869787377 _2_ MAC  --- 0 CTS 38 [13b4 1 0 0] 
r 27.870091677 _1_ MAC  --- 0 CTS 38 [13b4 1 0 0] 
s 27.870101677 _1_ MAC  --- 9 cbr 590 [13a 2 1 800] ------- [1:0 2:0 30 2] [9] 0 1
r 27.874821976 _2_ MAC  --- 9 cbr 532 [13a 2 1 800] ------- [1:0 2:0 30 2] [9] 1 1
s 27.874831976 _2_ MAC  --- 0 ACK 38 [0 1 0 0] 
r 27.874846976 _2_ AGT  --- 9 cbr 532 [13a 2 1 800] ------- [1:0 2:0 30 2] [9] 1 1
r 27.875136276 _1_ MAC  --- 0 ACK 38 [0 1 0 0] 
s 28.077985767 _1_ AGT  --- 10 cbr 512 [0 0 0 0] ------- [1:0 2:0 32 0] [10] 0 1
r 28.077985767 _1_ RTR  --- 10 cbr 512 [0 0 0 0] ------- [1:0 2:0 32 0] [10] 0 1
s 28.077985767 _1_ RTR  --- 10 cbr 532 [0 0 0 0] ------- [1:0 2:0 30 2] [10] 0 1
s 28.078540767 _1_ MAC  --- 0 RTS 44 [14ee 2 1 0] 
r 28.078893067 _2_ MAC  --- 0 RTS 44 [14ee 2 1 0] 
s 28.078903067 _2_ MAC  --- 0 CTS 38 [13b4 1 0 0] 
r 28.079207367 _1_ MAC  --- 0 CTS 38 [13b4 1 0 0] 
s 28.079217367 _1_ MAC  --- 10 cbr 590 [13a 2 1 800] ------- [1:0 2:0 30 2] [10] 0 1
r 28.083937667 _2_ MAC  --- 10 cbr 532 [13a 2 1 800] ------- [1:0 2:0 30 2] [10] 1 1
s 28.083947667 _2_ MAC  --- 0 ACK 38 [0 1 0 0] 
r 28.083962667 _2_ AGT  --- 10 cbr 532 [13a 2 1 800] ------- [1:0 2:0 30 2] [10] 1 1
r 28.084251967 _1_ MAC  --- 0 ACK 38 [0 1 0 0] 
s 28.267234202 _1_ AGT  --- 11 cbr 512 [0 0 0 0] ------- [1:0 2:0 32 0] [11] 0 1
r 28.267234202 _1_ RTR  --- 11 cbr 512 [0 0 0 0] ------- [1:0 2:0 32 0] [11] 0 1
s 28.267234202 _1_ RTR  --- 11 cbr 532 [0 0 0 0] ------- [1:0 2:0 30 2] [11] 0 1
s 28.267629202 _1_ MAC  --- 0 RTS 44 [14ee 2 1 0] 
r 28.267981502 _2_ MAC  --- 0 RTS 44 [14ee 2 1 0] 
s 28.267991502 _2_ MAC  --- 0 CTS 38 [13b4 1 0 0] 
r 28.268295802 _1_ MAC  --- 0 CTS 38 [13b4 1 0 0] 
s 28.268305802 _1_ MAC  --- 11 cbr 590 [13a 2 1 800] ------- [1:0 2:0 30 2] [11] 0 1
r 28.273026102 _2_ MAC  --- 11 cbr 532 [13a 2 1 800] ------- [1:0 2:0 30 2] [11] 1 1
s 28.273036102 _2_ MAC  --- 0 ACK 38 [0 1 0 0] 
r 28.273051102 _2_ AGT  --- 11 cbr 532 [13a 2 1 800] ------- [1:0 2:0 30 2] [11] 1 1
r 28.273340402 _1_ MAC  --- 0 ACK 38 [0 1 0 0] 
s 28.611398120 _1_ AGT  --- 12 cbr 512 [0 0 0 0] ------- [1:0 2:0 32 0] [12] 0 1
r 28.611398120 _1_ RTR  --- 12 cbr 512 [0 0 0 0] ------- [1:0 2:0 32 0] [12] 0 1
s 28.611398120 _1_ RTR  --- 12 cbr 532 [0 0 0 0] ------- [1:0 2:0 30 2] [12] 0 1
s 28.611553120 _1_ MAC  --- 0 RTS 44 [14ee 2 1 0] 
r 28.611905421 _2_ MAC  --- 0 RTS 44 [14ee 2 1 0] 
s 28.611915421 _2_ MAC  --- 0 CTS 38 [13b4 1 0 0] 
r 28.612219722 _1_ MAC  --- 0 CTS 38 [13b4 1 0 0] 
s 28.612229722 _1_ MAC  --- 12 cbr 590 [13a 2 1 800] ------- [1:0 2:0 30 2] [12] 0 1
r 28.616950022 _2_ MAC  --- 12 cbr 532 [13a 2 1 800] ------- [1:0 2:0 30 2] [12] 1 1
s 28.616960022 _2_ MAC  --- 0 ACK 38 [0 1 0 0] 
r 28.616975022 _2_ AGT  --- 12 cbr 532 [13a 2 1 800] ------- [1:0 2:0 30 2] [12] 1 1
r 28.617264323 _1_ MAC  --- 0 ACK 38 [0 1 0 0] 
s 28.842819940 _1_ AGT  --- 13 cbr 512 [0 0 0 0] ------- [1:0 2:0 32 0] [13] 0 1
r 28.842819940 _1_ RTR  --- 13 cbr 512 [0 0 0 0] ------- [1:0 2:0 32 0] [13] 0 1
s 28.842819940 _1_ RTR  --- 13 cbr 532 [0 0 0 0] ------- [1:0 2:0 30 2] [13] 0 1
s 28.843134940 _1_ MAC  --- 0 RTS 44 [14ee 2 1 0] 
r 28.843487241 _2_ MAC  --- 0 RTS 44 [14ee 2 1 0] 
s 28.843497241 _2_ MAC  --- 0 CTS 38 [13b4 1 0 0] 
r 28.843801542 _1_ MAC  --- 0 CTS 38 [13b4 1 0 0] 
s 28.843811542 _1_ MAC  --- 13 cbr 590 [13a 2 1 800] ------- [1:0 2:0 30 2] [13] 0 1
r 28.848531843 _2_ MAC  --- 13 cbr 532 [13a 2 1 800] ------- [1:0 2:0 30 2] [13] 1 1
s 28.848541843 _2_ MAC  --- 0 ACK 38 [0 1 0 0] 
r 28.848556843 _2_ AGT  --- 13 cbr 532 [13a 2 1 800] ------- [1:0 2:0 30 2] [13] 1 1
r 28.848846144 _1_ MAC  --- 0 ACK 38 [0 1 0 0] 
s 29.014373503 _1_ AGT  --- 14 cbr 512 [0 0 0 0] ------- [1:0 2:0 32 0] [14] 0 1
r 29.014373503 _1_ RTR  --- 14 cbr 512 [0 0 0 0] ------- [1:0 2:0 32 0] [14] 0 1
s 29.014373503 _1_ RTR  --- 14 cbr 532 [0 0 0 0] ------- [1:0 2:0 30 2] [14] 0 1
s 29.014468503 _1_ MAC  --- 0 RTS 44 [14ee 2 1 0] 
r 29.014820804 _2_ MAC  --- 0 RTS 44 [14ee 2 1 0] 
s 29.014830804 _2_ MAC  --- 0 CTS 38 [13b4 1 0 0] 
r 29.015135106 _1_ MAC  --- 0 CTS 38 [13b4 1 0 0] 
s 29.015145106 _1_ MAC  --- 14 cbr 590 [13a 2 1 800] ------- [1:0 2:0 30 2] [14] 0 1
r 29.019865407 _2_ MAC  --- 14 cbr 532 [13a 2 1 800] ------- [1:0 2:0 30 2] [14] 1 1
s 29.019875407 _2_ MAC  --- 0 ACK 38 [0 1 0 0] 
r 29.019890407 _2_ AGT  --- 14 cbr 532 [13a 2 1 800] ------- [1:0 2:0 30 2] [14] 1 1
r 29.020179708 _1_ MAC  --- 0 ACK 38 [0 1 0 0] 
s 29.332547437 _1_ AGT  --- 15 cbr 512 [0 0 0 0] ------- [1:0 2:0 32 0] [15] 0 1
r 29.332547437 _1_ RTR  --- 15 cbr 512 [0 0 0 0] ------- [1:0 2:0 32 0] [15] 0 1
s 29.332547437 _1_ RTR  --- 15 cbr 532 [0 0 0 0] ------- [1:0 2:0 30 2] [15] 0 1
s 29.332742437 _1_ MAC  --- 0 RTS 44 [14ee 2 1 0] 
r 29.333094739 _2_ MAC  --- 0 RTS 44 [14ee 2 1 0] 
s 29.333104739 _2_ MAC  --- 0 CTS 38 [13b4 1 0 0] 
r 29.333409041 _1_ MAC  --- 0 CTS 38 [13b4 1 0 0] 
s 29.333419041 _1_ MAC  --- 15 cbr 590 [13a 2 1 800] ------- [1:0 2:0 30 2] [15] 0 1
r 29.338139343 _2_ MAC  --- 15 cbr 532 [13a 2 1 800] ------- [1:0 2:0 30 2] [15] 1 1
s 29.338149343 _2_ MAC  --- 0 ACK 38 [0 1 0 0] 
r 29.338164343 _2_ AGT  --- 15 cbr 532 [13a 2 1 800] ------- [1:0 2:0 30 2] [15] 1 1
r 29.338453644 _1_ MAC  --- 0 ACK 38 [0 1 0 0] 
s 29.502229400 _1_ AGT  --- 16 cbr 512 [0 0 0 0] ------- [1:0 2:0 32 0] [16] 0 1
r 29.502229400 _1_ RTR  --- 16 cbr 512 [0 0 0 0] ------- [1:0 2:0 32 0] [16] 0 1
s 29.502229400 _1_ RTR  --- 16 cbr 532 [0 0 0 0] ------- [1:0 2:0 30 2] [16] 0 1
s 29.502764400 _1_ MAC  --- 0 RTS 44 [14ee 2 1 0] 
r 29.503116702 _2_ MAC  --- 0 RTS 44 [14ee 2 1 0] 
s 29.503126702 _2_ MAC  --- 0 CTS 38 [13b4 1 0 0] 
r 29.503431004 _1_ MAC  --- 0 CTS 38 [13b4 1 0 0] 
s 29.503441004 _1_ MAC  --- 16 cbr 590 [13a 2 1 800] ------- [1:0 2:0 30 2] [16] 0 1
r 29.508161306 _2_ MAC  --- 16 cbr 532 [13a 2 1 800] ------- [1:0 2:0 30 2] [16] 1 1
s 29.508171306 _2_ MAC  --- 0 ACK 38 [0 1 0 0] 
r 29.508186306 _2_ AGT  --- 16 cbr 532 [13a 2 1 800] ------- [1:0 2:0 30 2] [16] 1 1
r 29.508475608 _1_ MAC  --- 0 ACK 38 [0 1 0 0] 
s 29.750159826 _1_ AGT  --- 17 cbr 512 [0 0 0 0] ------- [1:0 2:0 32 0] [17] 0 1
r 29.750159826 _1_ RTR  --- 17 cbr 512 [0 0 0 0] ------- [1:0 2:0 32 0] [17] 0 1
s 29.750159826 _1_ RTR  --- 17 cbr 532 [0 0 0 0] ------- [1:0 2:0 30 2] [17] 0 1
s 29.750334826 _1_ MAC  --- 0 RTS 44 [14ee 2 1 0] 
r 29.750687128 _2_ MAC  --- 0 RTS 44 [14ee 2 1 0] 
s 29.750697128 _2_ MAC  --- 0 CTS 38 [13b4 1 0 0] 
r 29.751001430 _1_ MAC  --- 0 CTS 38 [13b4 1 0 0] 
s 29.751011430 _1_ MAC  --- 17 cbr 590 [13a 2 1 800] ------- [1:0 2:0 30 2] [17] 0 1
r 29.755731733 _2_ MAC  --- 17 cbr 532 [13a 2 1 800] ------- [1:0 2:0 30 2] [17] 1 1
s 29.755741733 _2_ MAC  --- 0 ACK 38 [0 1 0 0] 
r 29.755756733 _2_ AGT  --- 17 cbr 532 [13a 2 1 800] ------- [1:0 2:0 30 2] [17] 1 1
r 29.756046035 _1_ MAC  --- 0 ACK 38 [0 1 0 0] 
s 30.008384464 _1_ AGT  --- 18 cbr 512 [0 0 0 0] ------- [1:0 2:0 32 0] [18] 0 1
r 30.008384464 _1_ RTR  --- 18 cbr 512 [0 0 0 0] ------- [1:0 2:0 32 0] [18] 0 1
s 30.008384464 _1_ RTR  --- 18 cbr 532 [0 0 0 0] ------- [1:0 2:0 30 2] [18] 0 1
s 30.008659464 _1_ MAC  --- 0 RTS 44 [14ee 2 1 0] 
r 30.009011766 _2_ MAC  --- 0 RTS 44 [14ee 2 1 0] 
s 30.009021766 _2_ MAC  --- 0 CTS 38 [13b4 1 0 0] 
r 30.009326069 _1_ MAC  --- 0 CTS 38 [13b4 1 0 0] 
s 30.009336069 _1_ MAC  --- 18 cbr 590 [13a 2 1 800] ------- [1:0 2:0 30 2] [18] 0 1
r 30.014056372 _2_ MAC  --- 18 cbr 532 [13a 2 1 800] ------- [1:0 2:0 30 2] [18] 1 1
s 30.014066372 _2_ MAC  --- 0 ACK 38 [0 1 0 0] 
r 30.014081372 _2_ AGT  --- 18 cbr 532 [13a 2 1 800] ------- [1:0 2:0 30 2] [18] 1 1
r 30.014370675 _1_ MAC  --- 0 ACK 38 [0 1 0 0] 
s 30.155434500 _1_ AGT  --- 19 cbr 512 [0 0 0 0] ------- [1:0 2:0 32 0] [19] 0 1
r 30.155434500 _1_ RTR  --- 19 cbr 512 [0 0 0 0] ------- [1:0 2:0 32 0] [19] 0 1
s 30.155434500 _1_ RTR  --- 19 cbr 532 [0 0 0 0] ------- [1:0 2:0 30 2] [19] 0 1
s 30.156109500 _1_ MAC  --- 0 RTS 44 [14ee 2 1 0] 
r 30.156461803 _2_ MAC  --- 0 RTS 44 [14ee 2 1 0] 
s 30.156471803 _2_ MAC  --- 0 CTS 38 [13b4 1 0 0] 
r 30.156776106 _1_ MAC  --- 0 CTS 38 [13b4 1 0 0] 
s 30.156786106 _1_ MAC  --- 19 cbr 590 [13a 2 1 800] ------- [1:0 2:0 30 2] [19] 0 1
r 30.161506409 _2_ MAC  --- 19 cbr 532 [13a 2 1 800] ------- [1:0 2:0 30 2] [19] 1 1
s 30.161516409 _2_ MAC  --- 0 ACK 38 [0 1 0 0] 
r 30.161531409 _2_ AGT  --- 19 cbr 532 [13a 2 1 800] ------- [1:0 2:0 30 2] [19] 1 1
r 30.161820712 _1_ MAC  --- 0 ACK 38 [0 1 0 0] 
s 30.462444943 _1_ AGT  --- 20 cbr 512 [0 0 0 0] ------- [1:0 2:0 32 0] [20] 0 1
r 30.462444943 _1_ RTR  --- 20 cbr 512 [0 0 0 0] ------- [1:0 2:0 32 0] [20] 0 1
s 30.462444943 _1_ RTR  --- 20 cbr 532 [0 0 0 0] ------- [1:0 2:0 30 2] [20] 0 1
s 30.463099943 _1_ MAC  --- 0 RTS 44 [14ee 2 1 0] 
r 30.463452247 _2_ MAC  --- 0 RTS 44 [14ee 2 1 0] 
s 30.463462247 _2_ MAC  --- 0 CTS 38 [13b4 1 0 0] 
r 30.463766550 _1_ MAC  --- 0 CTS 38 [13b4 1 0 0] 
s 30.463776550 _1_ MAC  --- 20 cbr 590 [13a 2 1 800] ------- [1:0 2:0 30 2] [20] 0 1
r 30.468496853 _2_ MAC  --- 20 cbr 532 [13a 2 1 800] ------- [1:0 2:0 30 2] [20] 1 1
s 30.468506853 _2_ MAC  --- 0 ACK 38 [0 1 0 0] 
r 30.468521853 _2_ AGT  --- 20 cbr 532 [13a 2 1 800] ------- [1:0 2:0 30 2] [20] 1 1
r 30.468811157 _1_ MAC  --- 0 ACK 38 [0 1 0 0] 
s 30.771405075 _1_ AGT  --- 21 cbr 512 [0 0 0 0] ------- [1:0 2:0 32 0] [21] 0 1
r 30.771405075 _1_ RTR  --- 21 cbr 512 [0 0 0 0] ------- [1:0 2:0 32 0] [21] 0 1
s 30.771405075 _1_ RTR  --- 21 cbr 532 [0 0 0 0] ------- [1:0 2:0 30 2] [21] 0 1
s 30.771920075 _1_ MAC  --- 0 RTS 44 [14ee 2 1 0] 
r 30.772272379 _2_ MAC  --- 0 RTS 44 [14ee 2 1 0] 
s 30.772282379 _2_ MAC  --- 0 CTS 38 [13b4 1 0 0] 
r 30.772586683 _1_ MAC  --- 0 CTS 38 [13b4 1 0 0] 
s 30.772596683 _1_ MAC  --- 21 cbr 590 [13a 2 1 800] ------- [1:0 2:0 30 2] [21] 0 1
r 30.777316987 _2_ MAC  --- 21 cbr 532 [13a 2 1 800] ------- [1:0 2:0 30 2] [21] 1 1
s 30.777326987 _2_ MAC  --- 0 ACK 38 [0 1 0 0] 
r 30.777341987 _2_ AGT  --- 21 cbr 532 [13a 2 1 800] ------- [1:0 2:0 30 2] [21] 1 1
r 30.777631291 _1_ MAC  --- 0 ACK 38 [0 1 0 0] 
s 31.036007222 _1_ AGT  --- 22 cbr 512 [0 0 0 0] ------- [1:0 2:0 32 0] [22] 0 1
r 31.036007222 _1_ RTR  --- 22 cbr 512 [0 0 0 0] ------- [1:0 2:0 32 0] [22] 0 1
s 31.036007222 _1_ RTR  --- 22 cbr 532 [0 0 0 0] ------- [1:0 2:0 30 2] [22] 0 1
s 31.036382222 _1_ MAC  --- 0 RTS 44 [14ee 2 1 0] 
r 31.036734526 _2_ MAC  --- 0 RTS 44 [14ee 2 1 0] 
s 31.036744526 _2_ MAC  --- 0 CTS 38 [13b4 1 0 0] 
r 31.037048831 _1_ MAC  --- 0 CTS 38 [13b4 1 0 0] 
s 31.037058831 _1_ MAC  --- 22 cbr 590 [13a 2 1 800] ------- [1:0 2:0 30 2] [22] 0 1
r 31.041779135 _2_ MAC  --- 22 cbr 532 [13a 2 1 800] ------- [1:0 2:0 30 2] [22] 1 1
s 31.041789135 _2_ MAC  --- 0 ACK 38 [0 1 0 0] 
r 31.041804135 _2_ AGT  --- 22 cbr 532 [13a 2 1 800] ------- [1:0 2:0 30 2] [22] 1 1
r 31.042093439 _1_ MAC  --- 0 ACK 38 [0 1 0 0] 
s 31.326888700 _1_ AGT  --- 23 cbr 512 [0 0 0 0] ------- [1:0 2:0 32 0] [23] 0 1
r 31.326888700 _1_ RTR  --- 23 cbr 512 [0 0 0 0] ------- [1:0 2:0 32 0] [23] 0 1
s 31.326888700 _1_ RTR  --- 23 cbr 532 [0 0 0 0] ------- [1:0 2:0 30 2] [23] 0 1
s 31.327003700 _1_ MAC  --- 0 RTS 44 [14ee 2 1 0] 
r 31.327356005 _2_ MAC  --- 0 RTS 44 [14ee 2 1 0] 
s 31.327366005 _2_ MAC  --- 0 CTS 38 [13b4 1 0 0] 
r 31.327670310 _1_ MAC  --- 0 CTS 38 [13b4 1 0 0] 
s 31.327680310 _1_ MAC  --- 23 cbr 590 [13a 2 1 800] ------- [1:0 2:0 30 2] [23] 0 1
r 31.332400614 _2_ MAC  --- 23 cbr 532 [13a 2 1 800] ------- [1:0 2:0 30 2] [23] 1 1
s 31.332410614 _2_ MAC  --- 0 ACK 38 [0 1 0 0] 
r 31.332425614 _2_ AGT  --- 23 cbr 532 [13a 2 1 800] ------- [1:0 2:0 30 2] [23] 1 1
r 31.332714919 _1_ MAC  --- 0 ACK 38 [0 1 0 0] 
s 31.588419455 _1_ AGT  --- 24 cbr 512 [0 0 0 0] ------- [1:0 2:0 32 0] [24] 0 1
r 31.588419455 _1_ RTR  --- 24 cbr 512 [0 0 0 0] ------- [1:0 2:0 32 0] [24] 0 1
s 31.588419455 _1_ RTR  --- 24 cbr 532 [0 0 0 0] ------- [1:0 2:0 30 2] [24] 0 1
s 31.588674455 _1_ MAC  --- 0 RTS 44 [14ee 2 1 0] 
r 31.589026760 _2_ MAC  --- 0 RTS 44 [14ee 2 1 0] 
s 31.589036760 _2_ MAC  --- 0 CTS 38 [13b4 1 0 0] 
r 31.589341065 _1_ MAC  --- 0 CTS 38 [13b4 1 0 0] 
s 31.589351065 _1_ MAC  --- 24 cbr 590 [13a 2 1 800] ------- [1:0 2:0 30 2] [24] 0 1
r 31.594071370 _2_ MAC  --- 24 cbr 532 [13a 2 1 800] ------- [1:0 2:0 30 2] [24] 1 1
s 31.594081370 _2_ MAC  --- 0 ACK 38 [0 1 0 0] 
r 31.594096370 _2_ AGT  --- 24 cbr 532 [13a 2 1 800] ------- [1:0 2:0 30 2] [24] 1 1
r 31.594385675 _1_ MAC  --- 0 ACK 38 [0 1 0 0] 
s 31.734276927 _1_ AGT  --- 25 cbr 512 [0 0 0 0] ------- [1:0 2:0 32 0] [25] 0 1
r 31.734276927 _1_ RTR  --- 25 cbr 512 [0 0 0 0] ------- [1:0 2:0 32 0] [25] 0 1
s 31.734276927 _1_ RTR  --- 25 cbr 532 [0 0 0 0] ------- [1:0 2:0 30 2] [25] 0 1
s 31.734751927 _1_ MAC  --- 0 RTS 44 [14ee 2 1 0] 
r 31.735104233 _2_ MAC  --- 0 RTS 44 [14ee 2 1 0] 
s 31.735114233 _2_ MAC  --- 0 CTS 38 [13b4 1 0 0] 
r 31.735418538 _1_ MAC  --- 0 CTS 38 [13b4 1 0 0] 
s 31.735428538 _1_ MAC  --- 25 cbr 590 [13a 2 1 800] ------- [1:0 2:0 30 2] [25] 0 1
r 31.740148843 _2_ MAC  --- 25 cbr 532 [13a 2 1 800] ------- [1:0 2:0 30 2] [25] 1 1
s 31.740158843 _2_ MAC  --- 0 ACK 38 [0 1 0 0] 
r 31.740173843 _2_ AGT  --- 25 cbr 532 [13a 2 1 800] ------- [1:0 2:0 30 2] [25] 1 1
r 31.740463148 _1_ MAC  --- 0 ACK 38 [0 1 0 0] 
s 32.087261728 _1_ AGT  --- 26 cbr 512 [0 0 0 0] ------- [1:0 2:0 32 0] [26] 0 1
r 32.087261728 _1_ RTR  --- 26 cbr 512 [0 0 0 0] ------- [1:0 2:0 32 0] [26] 0 1
s 32.087261728 _1_ RTR  --- 26 cbr 532 [0 0 0 0] ------- [1:0 2:0 30 2] [26] 0 1
s 32.087556728 _1_ MAC  --- 0 RTS 44 [14ee 2 1 0] 
r 32.087909034 _2_ MAC  --- 0 RTS 44 [14ee 2 1 0] 
s 32.087919034 _2_ MAC  --- 0 CTS 38 [13b4 1 0 0] 
r 32.088223339 _1_ MAC  --- 0 CTS 38 [13b4 1 0 0] 
s 32.088233339 _1_ MAC  --- 26 cbr 590 [13a 2 1 800] ------- [1:0 2:0 30 2] [26] 0 1
r 32.092953645 _2_ MAC  --- 26 cbr 532 [13a 2 1 800] ------- [1:0 2:0 30 2] [26] 1 1
s 32.092963645 _2_ MAC  --- 0 ACK 38 [0 1 0 0] 
r 32.092978645 _2_ AGT  --- 26 cbr 532 [13a 2 1 800] ------- [1:0 2:0 30 2] [26] 1 1
r 32.093267951 _1_ MAC  --- 0 ACK 38 [0 1 0 0] 
s 32.288508971 _1_ AGT  --- 27 cbr 512 [0 0 0 0] ------- [1:0 2:0 32 0] [27] 0 1
r 32.288508971 _1_ RTR  --- 27 cbr 512 [0 0 0 0] ------- [1:0 2:0 32 0] [27] 0 1
s 32.288508971 _1_ RTR  --- 27 cbr 532 [0 0 0 0] ------- [1:0 2:0 30 2] [27] 0 1
s 32.288943971 _1_ MAC  --- 0 RTS 44 [14ee 2 1 0] 
r 32.289296277 _2_ MAC  --- 0 RTS 44 [14ee 2 1 0] 
s 32.289306277 _2_ MAC  --- 0 CTS 38 [13b4 1 0 0] 
r 32.289610583 _1_ MAC  --- 0 CTS 38 [13b4 1 0 0] 
s 32.289620583 _1_ MAC  --- 27 cbr 590 [13a 2 1 800] ------- [1:0 2:0 30 2] [27] 0 1
r 32.294340889 _2_ MAC  --- 27 cbr 532 [13a 2 1 800] ------- [1:0 2:0 30 2] [27] 1 1
s 32.294350889 _2_ MAC  --- 0 ACK 38 [0 1 0 0] 
r 32.294365889 _2_ AGT  --- 27 cbr 532 [13a 2 1 800] ------- [1:0 2:0 30 2] [27] 1 1
r 32.294655195 _1_ MAC  --- 0 ACK 38 [0 1 0 0] 
s 32.633823341 _1_ AGT  --- 28 cbr 512 [0 0 0 0] ------- [1:0 2:0 32 0] [28] 0 1
r 32.633823341 _1_ RTR  --- 28 cbr 512 [0 0 0 0] ------- [1:0 2:0 32 0] [28] 0 1
s 32.633823341 _1_ RTR  --- 28 cbr 532 [0 0 0 0] ------- [1:0 2:0 30 2] [28] 0 1
s 32.634398341 _1_ MAC  --- 0 RTS 44 [14ee 2 1 0] 
r 32.634750647 _2_ MAC  --- 0 RTS 44 [14ee 2 1 0] 
s 32.634760647 _2_ MAC  --- 0 CTS 38 [13b4 1 0 0] 
r 32.635064954 _1_ MAC  --- 0 CTS 38 [13b4 1 0 0] 
s 32.635074954 _1_ MAC  --- 28 cbr 590 [13a 2 1 800] ------- [1:0 2:0 30 2] [28] 0 1
r 32.639795260 _2_ MAC  --- 28 cbr 532 [13a 2 1 800] ------- [1:0 2:0 30 2] [28] 1 1
s 32.639805260 _2_ MAC  --- 0 ACK 38 [0 1 0 0] 
r 32.639820260 _2_ AGT  --- 28 cbr 532 [13a 2 1 800] ------- [1:0 2:0 30 2] [28] 1 1
r 32.640109567 _1_ MAC  --- 0 ACK 38 [0 1 0 0] 
s 32.801628094 _1_ AGT  --- 29 cbr 512 [0 0 0 0] ------- [1:0 2:0 32 0] [29] 0 1
r 32.801628094 _1_ RTR  --- 29 cbr 512 [0 0 0 0] ------- [1:0 2:0 32 0] [29] 0 1