n -t * -s 0  -x 0 -y 0 -Z 0 -z 10  -v circle -c black
n -t * -s 1  -x 0 -y 0 -Z 0 -z 10  -v circle -c black
n -t * -s 2  -x 0 -y 0 -Z 0 -z 10  -v circle -c black
n -t * -s 3  -x 0 -y 0 -Z 0 -z 10  -v circle -c black
n -t * -s 4  -x 0 -y 0 -Z 0 -z 10  -v circle -c black
n -t * -s 5  -x 0 -y 0 -Z 0 -z 10  -v circle -c black
n -t * -s 6  -x 0 -y 0 -Z 0 -z 10  -v circle -c black
n -t * -s 7  -x 0 -y 0 -Z 0 -z 10  -v circle -c black
n -t * -s 8  -x 0 -y 0 -Z 0 -z 10  -v circle -c black
n -t * -s 9  -x 0 -y 0 -Z 0 -z 10  -v circle -c black
V -t * -v 1.0a5 -a 0
W -t * -x 1000 -y 1000
A -t * -n 1 -p 0 -o 0x7fffffff -c 30 -a 1
A -t * -h 1 -m 1073741823 -s 0
n -t 10.000000 -s 0 -x 514.363968 -y 284.340619 -U -0.004406 -V 0.012700 -T 49407.487580
n -t 10.000000 -s 1 -x 643.659896 -y 149.919625 -U -0.747944 -V -0.326872 -T 416.009650
n -t 10.000000 -s 2 -x 725.967589 -y 148.703643 -U -0.336505 -V 0.084263 -T 938.882429
n -t 10.000000 -s 3 -x 665.333009 -y 725.174954 -U -0.001738 -V -0.308863 -T 444.960857
n -t 10.000000 -s 4 -x 682.881447 -y 101.166921 -U -0.247885 -V 0.134216 -T 1831.177845
n -t 10.000000 -s 5 -x 366.602131 -y 469.966771 -U 0.219274 -V 0.270086 -T 1127.906416
n -t 10.000000 -s 6 -x 835.597308 -y 721.863105 -U -0.119333 -V 0.002946 -T 4249.864118
n -t 10.000000 -s 7 -x 937.160277 -y 560.155071 -U -0.774885 -V 0.061795 -T 1096.136563
n -t 10.000000 -s 8 -x 2.252052 -y 360.668296 -U 0.220096 -V 0.360046 -T 738.918654
n -t 10.000000 -s 9 -x 456.678403 -y 486.648594 -U 0.519000 -V 0.539641 -T 726.356221
+ -t 25.561746129 -s 1 -d -1 -p cbr -e 512 -c 2 -a 0 -i 0 -k AGT 
- -t 25.561746129 -s 1 -d -1 -p cbr -e 512 -c 2 -a 0 -i 0 -k AGT
h -t 25.561746129 -s 1 -d -1 -p cbr -e 512 -c 2 -a 0 -i 0 -k AGT
+ -t 25.561746129 -s 1 -d -1 -p AODV -e 48 -c 2 -a 0 -i 0 -k RTR 
- -t 25.561746129 -s 1 -d -1 -p AODV -e 48 -c 2 -a 0 -i 0 -k RTR
h -t 25.561746129 -s 1 -d -1 -p AODV -e 48 -c 2 -a 0 -i 0 -k RTR
+ -t 25.561861129 -s 1 -d -1 -p AODV -e 106 -c 2 -a 0 -i 0 -k MAC 
- -t 25.561861129 -s 1 -d -1 -p AODV -e 106 -c 2 -a 0 -i 0 -k MAC
h -t 25.561861129 -s 1 -d -1 -p AODV -e 106 -c 2 -a 0 -i 0 -k MAC
r -t 25.562709338 -s 4 -d -1 -p AODV -e 48 -c 2 -a 0 -i 0 -k MAC
r -t 25.562709425 -s 2 -d -1 -p AODV -e 48 -c 2 -a 0 -i 0 -k MAC
r -t 25.562709738 -s 0 -d -1 -p AODV -e 48 -c 2 -a 0 -i 0 -k MAC
r -t 25.562734338 -s 4 -d -1 -p AODV -e 48 -c 2 -a 0 -i 0 -k RTR
r -t 25.562734425 -s 2 -d -1 -p AODV -e 48 -c 2 -a 0 -i 0 -k RTR
+ -t 25.562734425 -s 2 -d 1 -p AODV -e 44 -c 2 -a 0 -i 0 -k RTR 
- -t 25.562734425 -s 2 -d 1 -p AODV -e 44 -c 2 -a 0 -i 0 -k RTR
h -t 25.562734425 -s 2 -d 1 -p AODV -e 44 -c 2 -a 0 -i 0 -k RTR
r -t 25.562734738 -s 0 -d -1 -p AODV -e 48 -c 2 -a 0 -i 0 -k RTR
+ -t 25.562789425 -s 2 -d -1 -p ARP -e 86 -c 2 -a 0 -i 0 -k MAC 
- -t 25.562789425 -s 2 -d -1 -p ARP -e 86 -c 2 -a 0 -i 0 -k MAC
h -t 25.562789425 -s 2 -d -1 -p ARP -e 86 -c 2 -a 0 -i 0 -k MAC
r -t 25.563477634 -s 4 -d -1 -p ARP -e 28 -c 2 -a 0 -i 0 -k MAC
r -t 25.563477721 -s 1 -d -1 -p ARP -e 28 -c 2 -a 0 -i 0 -k MAC
r -t 25.563478246 -s 0 -d -1 -p ARP -e 28 -c 2 -a 0 -i 0 -k MAC
+ -t 25.563615565 -s 4 -d -1 -p AODV -e 48 -c 2 -a 0 -i 0 -k RTR 
- -t 25.563615565 -s 4 -d -1 -p AODV -e 48 -c 2 -a 0 -i 0 -k RTR
h -t 25.563615565 -s 4 -d -1 -p AODV -e 48 -c 2 -a 0 -i 0 -k RTR
+ -t 25.563890565 -s 4 -d -1 -p AODV -e 106 -c 2 -a 0 -i 0 -k MAC 
- -t 25.563890565 -s 4 -d -1 -p AODV -e 106 -c 2 -a 0 -i 0 -k MAC
h -t 25.563890565 -s 4 -d -1 -p AODV -e 106 -c 2 -a 0 -i 0 -k MAC
r -t 25.564738773 -s 2 -d -1 -p AODV -e 48 -c 2 -a 0 -i 0 -k MAC
r -t 25.564738774 -s 1 -d -1 -p AODV -e 48 -c 2 -a 0 -i 0 -k MAC
r -t 25.564739381 -s 0 -d -1 -p AODV -e 48 -c 2 -a 0 -i 0 -k MAC
r -t 25.564763773 -s 2 -d -1 -p AODV -e 48 -c 2 -a 0 -i 0 -k RTR
r -t 25.564763774 -s 1 -d -1 -p AODV -e 48 -c 2 -a 0 -i 0 -k RTR
r -t 25.564764381 -s 0 -d -1 -p AODV -e 48 -c 2 -a 0 -i 0 -k RTR
+ -t 25.564968774 -s 1 -d -1 -p RTS -e 44 -c 2 -a 0 -i 0 -k MAC 
- -t 25.564968774 -s 1 -d -1 -p RTS -e 44 -c 2 -a 0 -i 0 -k MAC
h -t 25.564968774 -s 1 -d -1 -p RTS -e 44 -c 2 -a 0 -i 0 -k MAC
r -t 25.565321070 -s 2 -d -1 -p RTS -e 44 -c 2 -a 0 -i 0 -k MAC
+ -t 25.565331070 -s 2 -d -1 -p CTS -e 38 -c 2 -a 0 -i 0 -k MAC 
- -t 25.565331070 -s 2 -d -1 -p CTS -e 38 -c 2 -a 0 -i 0 -k MAC
h -t 25.565331070 -s 2 -d -1 -p CTS -e 38 -c 2 -a 0 -i 0 -k MAC
r -t 25.565635366 -s 1 -d -1 -p CTS -e 38 -c 2 -a 0 -i 0 -k MAC
+ -t 25.565645366 -s 1 -d -1 -p ARP -e 86 -c 2 -a 0 -i 0 -k MAC 
- -t 25.565645366 -s 1 -d -1 -p ARP -e 86 -c 2 -a 0 -i 0 -k MAC
h -t 25.565645366 -s 1 -d -1 -p ARP -e 86 -c 2 -a 0 -i 0 -k MAC
r -t 25.566333662 -s 2 -d -1 -p ARP -e 28 -c 2 -a 0 -i 0 -k MAC
+ -t 25.566343662 -s 2 -d -1 -p ACK -e 38 -c 2 -a 0 -i 0 -k MAC 
- -t 25.566343662 -s 2 -d -1 -p ACK -e 38 -c 2 -a 0 -i 0 -k MAC
h -t 25.566343662 -s 2 -d -1 -p ACK -e 38 -c 2 -a 0 -i 0 -k MAC
r -t 25.566647959 -s 1 -d -1 -p ACK -e 38 -c 2 -a 0 -i 0 -k MAC
+ -t 25.567057662 -s 2 -d -1 -p RTS -e 44 -c 2 -a 0 -i 0 -k MAC 
- -t 25.567057662 -s 2 -d -1 -p RTS -e 44 -c 2 -a 0 -i 0 -k MAC
h -t 25.567057662 -s 2 -d -1 -p RTS -e 44 -c 2 -a 0 -i 0 -k MAC
+ -t 25.567146471 -s 0 -d -1 -p AODV -e 48 -c 2 -a 0 -i 0 -k RTR 
- -t 25.567146471 -s 0 -d -1 -p AODV -e 48 -c 2 -a 0 -i 0 -k RTR
h -t 25.567146471 -s 0 -d -1 -p AODV -e 48 -c 2 -a 0 -i 0 -k RTR
r -t 25.567409959 -s 1 -d -1 -p RTS -e 44 -c 2 -a 0 -i 0 -k MAC
+ -t 25.567419959 -s 1 -d -1 -p CTS -e 38 -c 2 -a 0 -i 0 -k MAC 
- -t 25.567419959 -s 1 -d -1 -p CTS -e 38 -c 2 -a 0 -i 0 -k MAC
h -t 25.567419959 -s 1 -d -1 -p CTS -e 38 -c 2 -a 0 -i 0 -k MAC
r -t 25.567724255 -s 2 -d -1 -p CTS -e 38 -c 2 -a 0 -i 0 -k MAC
+ -t 25.567734255 -s 2 -d 1 -p AODV -e 102 -c 2 -a 0 -i 0 -k MAC 
- -t 25.567734255 -s 2 -d 1 -p AODV -e 102 -c 2 -a 0 -i 0 -k MAC
h -t 25.567734255 -s 2 -d 1 -p AODV -e 102 -c 2 -a 0 -i 0 -k MAC
r -t 25.568550551 -s 1 -d 1 -p AODV -e 44 -c 2 -a 0 -i 0 -k MAC
+ -t 25.568560551 -s 1 -d -1 -p ACK -e 38 -c 2 -a 0 -i 0 -k MAC 
- -t 25.568560551 -s 1 -d -1 -p ACK -e 38 -c 2 -a 0 -i 0 -k MAC
h -t 25.568560551 -s 1 -d -1 -p ACK -e 38 -c 2 -a 0 -i 0 -k MAC
+ -t 25.568575551 -s 1 -d 2 -p cbr -e 532 -c 2 -a 0 -i 0 -k RTR 
- -t 25.568575551 -s 1 -d 2 -p cbr -e 532 -c 2 -a 0 -i 0 -k RTR
h -t 25.568575551 -s 1 -d 2 -p cbr -e 532 -c 2 -a 0 -i 0 -k RTR
r -t 25.568864847 -s 2 -d -1 -p ACK -e 38 -c 2 -a 0 -i 0 -k MAC
+ -t 25.568954551 -s 1 -d -1 -p RTS -e 44 -c 2 -a 0 -i 0 -k MAC 
- -t 25.568954551 -s 1 -d -1 -p RTS -e 44 -c 2 -a 0 -i 0 -k MAC
h -t 25.568954551 -s 1 -d -1 -p RTS -e 44 -c 2 -a 0 -i 0 -k MAC
r -t 25.569306847 -s 2 -d -1 -p RTS -e 44 -c 2 -a 0 -i 0 -k MAC
+ -t 25.569316847 -s 2 -d -1 -p CTS -e 38 -c 2 -a 0 -i 0 -k MAC 
- -t 25.569316847 -s 2 -d -1 -p CTS -e 38 -c 2 -a 0 -i 0 -k MAC
h -t 25.569316847 -s 2 -d -1 -p CTS -e 38 -c 2 -a 0 -i 0 -k MAC
r -t 25.569621143 -s 1 -d -1 -p CTS -e 38 -c 2 -a 0 -i 0 -k MAC
+ -t 25.569631143 -s 1 -d 2 -p cbr -e 590 -c 2 -a 0 -i 0 -k MAC 
- -t 25.569631143 -s 1 -d 2 -p cbr -e 590 -c 2 -a 0 -i 0 -k MAC
h -t 25.569631143 -s 1 -d 2 -p cbr -e 590 -c 2 -a 0 -i 0 -k MAC
r -t 25.574351440 -s 2 -d 2 -p cbr -e 532 -c 2 -a 0 -i 0 -k MAC
+ -t 25.574361440 -s 2 -d -1 -p ACK -e 38 -c 2 -a 0 -i 0 -k MAC 
- -t 25.574361440 -s 2 -d -1 -p ACK -e 38 -c 2 -a 0 -i 0 -k MAC
h -t 25.574361440 -s 2 -d -1 -p ACK -e 38 -c 2 -a 0 -i 0 -k MAC
r -t 25.574376440 -s 2 -d 2 -p cbr -e 532 -c 2 -a 0 -i 0 -k AGT
r -t 25.574665736 -s 1 -d -1 -p ACK -e 38 -c 2 -a 0 -i 0 -k MAC
+ -t 25.574936261 -s 0 -d -1 -p AODV -e 106 -c 2 -a 0 -i 0 -k MAC 
- -t 25.574936261 -s 0 -d -1 -p AODV -e 106 -c 2 -a 0 -i 0 -k MAC
h -t 25.574936261 -s 0 -d -1 -p AODV -e 106 -c 2 -a 0 -i 0 -k MAC
r -t 25.575784870 -s 1 -d -1 -p AODV -e 48 -c 2 -a 0 -i 0 -k MAC
r -t 25.575784982 -s 9 -d -1 -p AODV -e 48 -c 2 -a 0 -i 0 -k MAC
r -t 25.575785055 -s 5 -d -1 -p AODV -e 48 -c 2 -a 0 -i 0 -k MAC
r -t 25.575785077 -s 4 -d -1 -p AODV -e 48 -c 2 -a 0 -i 0 -k MAC
r -t 25.575785082 -s 2 -d -1 -p AODV -e 48 -c 2 -a 0 -i 0 -k MAC
r -t 25.575809870 -s 1 -d -1 -p AODV -e 48 -c 2 -a 0 -i 0 -k RTR
r -t 25.575809982 -s 9 -d -1 -p AODV -e 48 -c 2 -a 0 -i 0 -k RTR
r -t 25.575810055 -s 5 -d -1 -p AODV -e 48 -c 2 -a 0 -i 0 -k RTR
r -t 25.575810077 -s 4 -d -1 -p AODV -e 48 -c 2 -a 0 -i 0 -k RTR
r -t 25.575810082 -s 2 -d -1 -p AODV -e 48 -c 2 -a 0 -i 0 -k RTR
+ -t 25.580046623 -s 5 -d -1 -p AODV -e 48 -c 2 -a 0 -i 0 -k RTR 
- -t 25.580046623 -s 5 -d -1 -p AODV -e 48 -c 2 -a 0 -i 0 -k RTR
h -t 25.580046623 -s 5 -d -1 -p AODV -e 48 -c 2 -a 0 -i 0 -k RTR
+ -t 25.580601623 -s 5 -d -1 -p AODV -e 106 -c 2 -a 0 -i 0 -k MAC 
- -t 25.580601623 -s 5 -d -1 -p AODV -e 106 -c 2 -a 0 -i 0 -k MAC
h -t 25.580601623 -s 5 -d -1 -p AODV -e 106 -c 2 -a 0 -i 0 -k MAC
r -t 25.581449946 -s 9 -d -1 -p AODV -e 48 -c 2 -a 0 -i 0 -k MAC
r -t 25.581450417 -s 0 -d -1 -p AODV -e 48 -c 2 -a 0 -i 0 -k MAC
r -t 25.581474946 -s 9 -d -1 -p AODV -e 48 -c 2 -a 0 -i 0 -k RTR
r -t 25.581475417 -s 0 -d -1 -p AODV -e 48 -c 2 -a 0 -i 0 -k RTR
+ -t 25.584407259 -s 9 -d -1 -p AODV -e 48 -c 2 -a 0 -i 0 -k RTR 
- -t 25.584407259 -s 9 -d -1 -p AODV -e 48 -c 2 -a 0 -i 0 -k RTR
h -t 25.584407259 -s 9 -d -1 -p AODV -e 48 -c 2 -a 0 -i 0 -k RTR
+ -t 25.584802259 -s 9 -d -1 -p AODV -e 106 -c 2 -a 0 -i 0 -k MAC 
- -t 25.584802259 -s 9 -d -1 -p AODV -e 106 -c 2 -a 0 -i 0 -k MAC
h -t 25.584802259 -s 9 -d -1 -p AODV -e 106 -c 2 -a 0 -i 0 -k MAC
r -t 25.585650582 -s 5 -d -1 -p AODV -e 48 -c 2 -a 0 -i 0 -k MAC
r -t 25.585650980 -s 0 -d -1 -p AODV -e 48 -c 2 -a 0 -i 0 -k MAC
r -t 25.585675582 -s 5 -d -1 -p AODV -e 48 -c 2 -a 0 -i 0 -k RTR
r -t 25.585675980 -s 0 -d -1 -p AODV -e 48 -c 2 -a 0 -i 0 -k RTR
+ -t 25.686831023 -s 1 -d -1 -p cbr -e 512 -c 2 -a 0 -i 1 -k AGT 
- -t 25.686831023 -s 1 -d -1 -p cbr -e 512 -c 2 -a 0 -i 1 -k AGT
h -t 25.686831023 -s 1 -d -1 -p cbr -e 512 -c 2 -a 0 -i 1 -k AGT
+ -t 25.686831023 -s 1 -d 2 -p cbr -e 532 -c 2 -a 0 -i 1 -k RTR 
- -t 25.686831023 -s 1 -d 2 -p cbr -e 532 -c 2 -a 0 -i 1 -k RTR
h -t 25.686831023 -s 1 -d 2 -p cbr -e 532 -c 2 -a 0 -i 1 -k RTR
+ -t 25.686926023 -s 1 -d -1 -p RTS -e 44 -c 2 -a 0 -i 0 -k MAC 
- -t 25.686926023 -s 1 -d -1 -p RTS -e 44 -c 2 -a 0 -i 0 -k MAC
h -t 25.686926023 -s 1 -d -1 -p RTS -e 44 -c 2 -a 0 -i 0 -k MAC
r -t 25.687278319 -s 2 -d -1 -p RTS -e 44 -c 2 -a 0 -i 0 -k MAC
+ -t 25.687288319 -s 2 -d -1 -p CTS -e 38 -c 2 -a 0 -i 0 -k MAC 
- -t 25.687288319 -s 2 -d -1 -p CTS -e 38 -c 2 -a 0 -i 0 -k MAC
h -t 25.687288319 -s 2 -d -1 -p CTS -e 38 -c 2 -a 0 -i 0 -k MAC
r -t 25.687592616 -s 1 -d -1 -p CTS -e 38 -c 2 -a 0 -i 0 -k MAC
+ -t 25.687602616 -s 1 -d 2 -p cbr -e 590 -c 2 -a 0 -i 1 -k MAC 
- -t 25.687602616 -s 1 -d 2 -p cbr -e 590 -c 2 -a 0 -i 1 -k MAC
h -t 25.687602616 -s 1 -d 2 -p cbr -e 590 -c 2 -a 0 -i 1 -k MAC
r -t 25.692322912 -s 2 -d 2 -p cbr -e 532 -c 2 -a 0 -i 1 -k MAC
+ -t 25.692332912 -s 2 -d -1 -p ACK -e 38 -c 2 -a 0 -i 0 -k MAC 
- -t 25.692332912 -s 2 -d -1 -p ACK -e 38 -c 2 -a 0 -i 0 -k MAC
h -t 25.692332912 -s 2 -d -1 -p ACK -e 38 -c 2 -a 0 -i 0 -k MAC
r -t 25.692347912 -s 2 -d 2 -p cbr -e 532 -c 2 -a 0 -i 1 -k AGT
r -t 25.692637208 -s 1 -d -1 -p ACK -e 38 -c 2 -a 0 -i 0 -k MAC
+ -t 25.876353010 -s 1 -d -1 -p cbr -e 512 -c 2 -a 0 -i 2 -k AGT 
- -t 25.876353010 -s 1 -d -1 -p cbr -e 512 -c 2 -a 0 -i 2 -k AGT
h -t 25.876353010 -s 1 -d -1 -p cbr -e 512 -c 2 -a 0 -i 2 -k AGT
+ -t 25.876353010 -s 1 -d 2 -p cbr -e 532 -c 2 -a 0 -i 2 -k RTR 
- -t 25.876353010 -s 1 -d 2 -p cbr -e 532 -c 2 -a 0 -i 2 -k RTR
h -t 25.876353010 -s 1 -d 2 -p cbr -e 532 -c 2 -a 0 -i 2 -k RTR
+ -t 25.876608010 -s 1 -d -1 -p RTS -e 44 -c 2 -a 0 -i 0 -k MAC 
- -t 25.876608010 -s 1 -d -1 -p RTS -e 44 -c 2 -a 0 -i 0 -k MAC
h -t 25.876608010 -s 1 -d -1 -p RTS -e 44 -c 2 -a 0 -i 0 -k MAC
r -t 25.876960307 -s 2 -d -1 -p RTS -e 44 -c 2 -a 0 -i 0 -k MAC
+ -t 25.876970307 -s 2 -d -1 -p CTS -e 38 -c 2 -a 0 -i 0 -k MAC 
- -t 25.876970307 -s 2 -d -1 -p CTS -e 38 -c 2 -a 0 -i 0 -k MAC
h -t 25.876970307 -s 2 -d -1 -p CTS -e 38 -c 2 -a 0 -i 0 -k MAC
r -t 25.877274603 -s 1 -d -1 -p CTS -e 38 -c 2 -a 0 -i 0 -k MAC
+ -t 25.877284603 -s 1 -d 2 -p cbr -e 590 -c 2 -a 0 -i 2 -k MAC 
- -t 25.877284603 -s 1 -d 2 -p cbr -e 590 -c 2 -a 0 -i 2 -k MAC
h -t 25.877284603 -s 1 -d 2 -p cbr -e 590 -c 2 -a 0 -i 2 -k MAC
r -t 25.882004900 -s 2 -d 2 -p cbr -e 532 -c 2 -a 0 -i 2 -k MAC
+ -t 25.882014900 -s 2 -d -1 -p ACK -e 38 -c 2 -a 0 -i 0 -k MAC 
- -t 25.882014900 -s 2 -d -1 -p ACK -e 38 -c 2 -a 0 -i 0 -k MAC
h -t 25.882014900 -s 2 -d -1 -p ACK -e 38 -c 2 -a 0 -i 0 -k MAC
r -t 25.882029900 -s 2 -d 2 -p cbr -e 532 -c 2 -a 0 -i 2 -k AGT
r -t 25.882319197 -s 1 -d -1 -p ACK -e 38 -c 2 -a 0 -i 0 -k MAC
+ -t 26.117881994 -s 1 -d -1 -p cbr -e 512 -c 2 -a 0 -i 3 -k AGT 
- -t 26.117881994 -s 1 -d -1 -p cbr -e 512 -c 2 -a 0 -i 3 -k AGT
h -t 26.117881994 -s 1 -d -1 -p cbr -e 512 -c 2 -a 0 -i 3 -k AGT
+ -t 26.117881994 -s 1 -d 2 -p cbr -e 532 -c 2 -a 0 -i 3 -k RTR 
- -t 26.117881994 -s 1 -d 2 -p cbr -e 532 -c 2 -a 0 -i 3 -k RTR
h -t 26.117881994 -s 1 -d 2 -p cbr -e 532 -c 2 -a 0 -i 3 -k RTR
+ -t 26.118496994 -s 1 -d -1 -p RTS -e 44 -c 2 -a 0 -i 0 -k MAC 
- -t 26.118496994 -s 1 -d -1 -p RTS -e 44 -c 2 -a 0 -i 0 -k MAC
h -t 26.118496994 -s 1 -d -1 -p RTS -e 44 -c 2 -a 0 -i 0 -k MAC
r -t 26.118849291 -s 2 -d -1 -p RTS -e 44 -c 2 -a 0 -i 0 -k MAC
+ -t 26.118859291 -s 2 -d -1 -p CTS -e 38 -c 2 -a 0 -i 0 -k MAC 
- -t 26.118859291 -s 2 -d -1 -p CTS -e 38 -c 2 -a 0 -i 0 -k MAC
h -t 26.118859291 -s 2 -d -1 -p CTS -e 38 -c 2 -a 0 -i 0 -k MAC
r -t 26.119163588 -s 1 -d -1 -p CTS -e 38 -c 2 -a 0 -i 0 -k MAC
+ -t 26.119173588 -s 1 -d 2 -p cbr -e 590 -c 2 -a 0 -i 3 -k MAC 
- -t 26.119173588 -s 1 -d 2 -p cbr -e 590 -c 2 -a 0 -i 3 -k MAC
h -t 26.119173588 -s 1 -d 2 -p cbr -e 590 -c 2 -a 0 -i 3 -k MAC
r -t 26.123893885 -s 2 -d 2 -p cbr -e 532 -c 2 -a 0 -i 3 -k MAC
+ -t 26.123903885 -s 2 -d -1 -p ACK -e 38 -c 2 -a 0 -i 0 -k MAC 
- -t 26.123903885 -s 2 -d -1 -p ACK -e 38 -c 2 -a 0 -i 0 -k MAC
h -t 26.123903885 -s 2 -d -1 -p ACK -e 38 -c 2 -a 0 -i 0 -k MAC
r -t 26.123918885 -s 2 -d 2 -p cbr -e 532 -c 2 -a 0 -i 3 -k AGT
r -t 26.124208182 -s 1 -d -1 -p ACK -e 38 -c 2 -a 0 -i 0 -k MAC
+ -t 26.452838295 -s 1 -d -1 -p cbr -e 512 -c 2 -a 0 -i 4 -k AGT 
- -t 26.452838295 -s 1 -d -1 -p cbr -e 512 -c 2 -a 0 -i 4 -k AGT
h -t 26.452838295 -s 1 -d -1 -p cbr -e 512 -c 2 -a 0 -i 4 -k AGT
+ -t 26.452838295 -s 1 -d 2 -p cbr -e 532 -c 2 -a 0 -i 4 -k RTR 
- -t 26.452838295 -s 1 -d 2 -p cbr -e 532 -c 2 -a 0 -i 4 -k RTR
h -t 26.452838295 -s 1 -d 2 -p cbr -e 532 -c 2 -a 0 -i 4 -k RTR
+ -t 26.453213295 -s 1 -d -1 -p RTS -e 44 -c 2 -a 0 -i 0 -k MAC 
- -t 26.453213295 -s 1 -d -1 -p RTS -e 44 -c 2 -a 0 -i 0 -k MAC
h -t 26.453213295 -s 1 -d -1 -p RTS -e 44 -c 2 -a 0 -i 0 -k MAC
r -t 26.453565592 -s 2 -d -1 -p RTS -e 44 -c 2 -a 0 -i 0 -k MAC
+ -t 26.453575592 -s 2 -d -1 -p CTS -e 38 -c 2 -a 0 -i 0 -k MAC 
- -t 26.453575592 -s 2 -d -1 -p CTS -e 38 -c 2 -a 0 -i 0 -k MAC
h -t 26.453575592 -s 2 -d -1 -p CTS -e 38 -c 2 -a 0 -i 0 -k MAC
r -t 26.453879890 -s 1 -d -1 -p CTS -e 38 -c 2 -a 0 -i 0 -k MAC
+ -t 26.453889890 -s 1 -d 2 -p cbr -e 590 -c 2 -a 0 -i 4 -k MAC 
- -t 26.453889890 -s 1 -d 2 -p cbr -e 590 -c 2 -a 0 -i 4 -k MAC
h -t 26.453889890 -s 1 -d 2 -p cbr -e 590 -c 2 -a 0 -i 4 -k MAC
r -t 26.458610187 -s 2 -d 2 -p cbr -e 532 -c 2 -a 0 -i 4 -k MAC
+ -t 26.458620187 -s 2 -d -1 -p ACK -e 38 -c 2 -a 0 -i 0 -k MAC 
- -t 26.458620187 -s 2 -d -1 -p ACK -e 38 -c 2 -a 0 -i 0 -k MAC
h -t 26.458620187 -s 2 -d -1 -p ACK -e 38 -c 2 -a 0 -i 0 -k MAC
r -t 26.458635187 -s 2 -d 2 -p cbr -e 532 -c 2 -a 0 -i 4 -k AGT
r -t 26.458924485 -s 1 -d -1 -p ACK -e 38 -c 2 -a 0 -i 0 -k MAC
+ -t 26.790614933 -s 1 -d -1 -p cbr -e 512 -c 2 -a 0 -i 5 -k AGT 
- -t 26.790614933 -s 1 -d -1 -p cbr -e 512 -c 2 -a 0 -i 5 -k AGT
h -t 26.790614933 -s 1 -d -1 -p cbr -e 512 -c 2 -a 0 -i 5 -k AGT
+ -t 26.790614933 -s 1 -d 2 -p cbr -e 532 -c 2 -a 0 -i 5 -k RTR 
- -t 26.790614933 -s 1 -d 2 -p cbr -e 532 -c 2 -a 0 -i 5 -k RTR
h -t 26.790614933 -s 1 -d 2 -p cbr -e 532 -c 2 -a 0 -i 5 -k RTR
+ -t 26.790769933 -s 1 -d -1 -p RTS -e 44 -c 2 -a 0 -i 0 -k MAC 
- -t 26.790769933 -s 1 -d -1 -p RTS -e 44 -c 2 -a 0 -i 0 -k MAC
h -t 26.790769933 -s 1 -d -1 -p RTS -e 44 -c 2 -a 0 -i 0 -k MAC
r -t 26.791122231 -s 2 -d -1 -p RTS -e 44 -c 2 -a 0 -i 0 -k MAC
+ -t 26.791132231 -s 2 -d -1 -p CTS -e 38 -c 2 -a 0 -i 0 -k MAC 
- -t 26.791132231 -s 2 -d -1 -p CTS -e 38 -c 2 -a 0 -i 0 -k MAC
h -t 26.791132231 -s 2 -d -1 -p CTS -e 38 -c 2 -a 0 -i 0 -k MAC
r -t 26.791436529 -s 1 -d -1 -p CTS -e 38 -c 2 -a 0 -i 0 -k MAC
+ -t 26.791446529 -s 1 -d 2 -p cbr -e 590 -c 2 -a 0 -i 5 -k MAC 
- -t 26.791446529 -s 1 -d 2 -p cbr -e 590 -c 2 -a 0 -i 5 -k MAC
h -t 26.791446529 -s 1 -d 2 -p cbr -e 590 -c 2 -a 0 -i 5 -k MAC
r -t 26.796166827 -s 2 -d 2 -p cbr -e 532 -c 2 -a 0 -i 5 -k MAC
+ -t 26.796176827 -s 2 -d -1 -p ACK -e 38 -c 2 -a 0 -i 0 -k MAC 
- -t 26.796176827 -s 2 -d -1 -p ACK -e 38 -c 2 -a 0 -i 0 -k MAC
h -t 26.796176827 -s 2 -d -1 -p ACK -e 38 -c 2 -a 0 -i 0 -k MAC
r -t 26.796191827 -s 2 -d 2 -p cbr -e 532 -c 2 -a 0 -i 5 -k AGT
r -t 26.796481125 -s 1 -d -1 -p ACK -e 38 -c 2 -a 0 -i 0 -k MAC
+ -t 27.141851300 -s 1 -d -1 -p cbr -e 512 -c 2 -a 0 -i 6 -k AGT 
- -t 27.141851300 -s 1 -d -1 -p cbr -e 512 -c 2 -a 0 -i 6 -k AGT
h -t 27.141851300 -s 1 -d -1 -p cbr -e 512 -c 2 -a 0 -i 6 -k AGT
+ -t 27.141851300 -s 1 -d 2 -p cbr -e 532 -c 2 -a 0 -i 6 -k RTR 
- -t 27.141851300 -s 1 -d 2 -p cbr -e 532 -c 2 -a 0 -i 6 -k RTR
h -t 27.141851300 -s 1 -d 2 -p cbr -e 532 -c 2 -a 0 -i 6 -k RTR
+ -t 27.142026300 -s 1 -d -1 -p RTS -e 44 -c 2 -a 0 -i 0 -k MAC 
- -t 27.142026300 -s 1 -d -1 -p RTS -e 44 -c 2 -a 0 -i 0 -k MAC
h -t 27.142026300 -s 1 -d -1 -p RTS -e 44 -c 2 -a 0 -i 0 -k MAC
r -t 27.142378599 -s 2 -d -1 -p RTS -e 44 -c 2 -a 0 -i 0 -k MAC
+ -t 27.142388599 -s 2 -d -1 -p CTS -e 38 -c 2 -a 0 -i 0 -k MAC 
- -t 27.142388599 -s 2 -d -1 -p CTS -e 38 -c 2 -a 0 -i 0 -k MAC
h -t 27.142388599 -s 2 -d -1 -p CTS -e 38 -c 2 -a 0 -i 0 -k MAC
r -t 27.142692897 -s 1 -d -1 -p CTS -e 38 -c 2 -a 0 -i 0 -k MAC
+ -t 27.142702897 -s 1 -d 2 -p cbr -e 590 -c 2 -a 0 -i 6 -k MAC 
- -t 27.142702897 -s 1 -d 2 -p cbr -e 590 -c 2 -a 0 -i 6 -k MAC
h -t 27.142702897 -s 1 -d 2 -p cbr -e 590 -c 2 -a 0 -i 6 -k MAC
r -t 27.147423196 -s 2 -d 2 -p cbr -e 532 -c 2 -a 0 -i 6 -k MAC
+ -t 27.147433196 -s 2 -d -1 -p ACK -e 38 -c 2 -a 0 -i 0 -k MAC 
- -t 27.147433196 -s 2 -d -1 -p ACK -e 38 -c 2 -a 0 -i 0 -k MAC
h -t 27.147433196 -s 2 -d -1 -p ACK -e 38 -c 2 -a 0 -i 0 -k MAC
r -t 27.147448196 -s 2 -d 2 -p cbr -e 532 -c 2 -a 0 -i 6 -k AGT
r -t 27.147737494 -s 1 -d -1 -p ACK -e 38 -c 2 -a 0 -i 0 -k MAC
+ -t 27.367903182 -s 1 -d -1 -p cbr -e 512 -c 2 -a 0 -i 7 -k AGT 
- -t 27.367903182 -s 1 -d -1 -p cbr -e 512 -c 2 -a 0 -i 7 -k AGT
h -t 27.367903182 -s 1 -d -1 -p cbr -e 512 -c 2 -a 0 -i 7 -k AGT
+ -t 27.367903182 -s 1 -d 2 -p cbr -e 532 -c 2 -a 0 -i 7 -k RTR 
- -t 27.367903182 -s 1 -d 2 -p cbr -e 532 -c 2 -a 0 -i 7 -k RTR
h -t 27.367903182 -s 1 -d 2 -p cbr -e 532 -c 2 -a 0 -i 7 -k RTR
+ -t 27.368178182 -s 1 -d -1 -p RTS -e 44 -c 2 -a 0 -i 0 -k MAC 
- -t 27.368178182 -s 1 -d -1 -p RTS -e 44 -c 2 -a 0 -i 0 -k MAC
h -t 27.368178182 -s 1 -d -1 -p RTS -e 44 -c 2 -a 0 -i 0 -k MAC
r -t 27.368530481 -s 2 -d -1 -p RTS -e 44 -c 2 -a 0 -i 0 -k MAC
+ -t 27.368540481 -s 2 -d -1 -p CTS -e 38 -c 2 -a 0 -i 0 -k MAC 
- -t 27.368540481 -s 2 -d -1 -p CTS -e 38 -c 2 -a 0 -i 0 -k MAC
h -t 27.368540481 -s 2 -d -1 -p CTS -e 38 -c 2 -a 0 -i 0 -k MAC
r -t 27.368844780 -s 1 -d -1 -p CTS -e 38 -c 2 -a 0 -i 0 -k MAC
+ -t 27.368854780 -s 1 -d 2 -p cbr -e 590 -c 2 -a 0 -i 7 -k MAC 
- -t 27.368854780 -s 1 -d 2 -p cbr -e 590 -c 2 -a 0 -i 7 -k MAC
h -t 27.368854780 -s 1 -d 2 -p cbr -e 590 -c 2 -a 0 -i 7 -k MAC
r -t 27.373575079 -s 2 -d 2 -p cbr -e 532 -c 2 -a 0 -i 7 -k MAC
+ -t 27.373585079 -s 2 -d -1 -p ACK -e 38 -c 2 -a 0 -i 0 -k MAC 
- -t 27.373585079 -s 2 -d -1 -p ACK -e 38 -c 2 -a 0 -i 0 -k MAC
h -t 27.373585079 -s 2 -d -1 -p ACK -e 38 -c 2 -a 0 -i 0 -k MAC
r -t 27.373600079 -s 2 -d 2 -p cbr -e 532 -c 2 -a 0 -i 7 -k AGT
r -t 27.373889378 -s 1 -d -1 -p ACK -e 38 -c 2 -a 0 -i 0 -k MAC
+ -t 27.729469421 -s 1 -d -1 -p cbr -e 512 -c 2 -a 0 -i 8 -k AGT 
- -t 27.729469421 -s 1 -d -1 -p cbr -e 512 -c 2 -a 0 -i 8 -k AGT
h -t 27.729469421 -s 1 -d -1 -p cbr -e 512 -c 2 -a 0 -i 8 -k AGT
+ -t 27.729469421 -s 1 -d 2 -p cbr -e 532 -c 2 -a 0 -i 8 -k RTR 
- -t 27.729469421 -s 1 -d 2 -p cbr -e 532 -c 2 -a 0 -i 8 -k RTR
h -t 27.729469421 -s 1 -d 2 -p cbr -e 532 -c 2 -a 0 -i 8 -k RTR
+ -t 27.729664421 -s 1 -d -1 -p RTS -e 44 -c 2 -a 0 -i 0 -k MAC 
- -t 27.729664421 -s 1 -d -1 -p RTS -e 44 -c 2 -a 0 -i 0 -k MAC
h -t 27.729664421 -s 1 -d -1 -p RTS -e 44 -c 2 -a 0 -i 0 -k MAC
r -t 27.730016720 -s 2 -d -1 -p RTS -e 44 -c 2 -a 0 -i 0 -k MAC
+ -t 27.730026720 -s 2 -d -1 -p CTS -e 38 -c 2 -a 0 -i 0 -k MAC 
- -t 27.730026720 -s 2 -d -1 -p CTS -e 38 -c 2 -a 0 -i 0 -k MAC
h -t 27.730026720 -s 2 -d -1 -p CTS -e 38 -c 2 -a 0 -i 0 -k MAC
r -t 27.730331019 -s 1 -d -1 -p CTS -e 38 -c 2 -a 0 -i 0 -k MAC
+ -t 27.730341019 -s 1 -d 2 -p cbr -e 590 -c 2 -a 0 -i 8 -k MAC 
- -t 27.730341019 -s 1 -d 2 -p cbr -e 590 -c 2 -a 0 -i 8 -k MAC
h -t 27.730341019 -s 1 -d 2 -p cbr -e 590 -c 2 -a 0 -i 8 -k MAC
r -t 27.735061319 -s 2 -d 2 -p cbr -e 532 -c 2 -a 0 -i 8 -k MAC
+ -t 27.735071319 -s 2 -d -1 -p ACK -e 38 -c 2 -a 0 -i 0 -k MAC 
- -t 27.735071319 -s 2 -d -1 -p ACK -e 38 -c 2 -a 0 -i 0 -k MAC
h -t 27.735071319 -s 2 -d -1 -p ACK -e 38 -c 2 -a 0 -i 0 -k MAC
r -t 27.735086319 -s 2 -d 2 -p cbr -e 532 -c 2 -a 0 -i 8 -k AGT
r -t 27.735375618 -s 1 -d -1 -p ACK -e 38 -c 2 -a 0 -i 0 -k MAC
+ -t 27.869070077 -s 1 -d -1 -p cbr -e 512 -c 2 -a 0 -i 9 -k AGT 
- -t 27.869070077 -s 1 -d -1 -p cbr -e 512 -c 2 -a 0 -i 9 -k AGT
h -t 27.869070077 -s 1 -d -1 -p cbr -e 512 -c 2 -a 0 -i 9 -k AGT
+ -t 27.869070077 -s 1 -d 2 -p cbr -e 532 -c 2 -a 0 -i 9 -k RTR 
- -t 27.869070077 -s 1 -d 2 -p cbr -e 532 -c 2 -a 0 -i 9 -k RTR
h -t 27.869070077 -s 1 -d 2 -p cbr -e 532 -c 2 -a 0 -i 9 -k RTR
+ -t 27.869425077 -s 1 -d -1 -p RTS -e 44 -c 2 -a 0 -i 0 -k MAC 
- -t 27.869425077 -s 1 -d -1 -p RTS -e 44 -c 2 -a 0 -i 0 -k MAC
h -t 27.869425077 -s 1 -d -1 -p RTS -e 44 -c 2 -a 0 -i 0 -k MAC
r -t 27.869777377 -s 2 -d -1 -p RTS -e 44 -c 2 -a 0 -i 0 -k MAC
+ -t 27.869787377 -s 2 -d -1 -p CTS -e 38 -c 2 -a 0 -i 0 -k MAC 
- -t 27.869787377 -s 2 -d -1 -p CTS -e 38 -c 2 -a 0 -i 0 -k MAC
h -t 27.869787377 -s 2 -d -1 -p CTS -e 38 -c 2 -a 0 -i 0 -k MAC
r -t 27.870091677 -s 1 -d -1 -p CTS -e 38 -c 2 -a 0 -i 0 -k MAC
+ -t 27.870101677 -s 1 -d 2 -p cbr -e 590 -c 2 -a 0 -i 9 -k MAC 
- -t 27.870101677 -s 1 -d 2 -p cbr -e 590 -c 2 -a 0 -i 9 -k MAC
h -t 27.870101677 -s 1 -d 2 -p cbr -e 590 -c 2 -a 0 -i 9 -k MAC
r -t 27.874821976 -s 2 -d 2 -p cbr -e 532 -c 2 -a 0 -i 9 -k MAC
+ -t 27.874831976 -s 2 -d -1 -p ACK -e 38 -c 2 -a 0 -i 0 -k MAC 
- -t 27.874831976 -s 2 -d -1 -p ACK -e 38 -c 2 -a 0 -i 0 -k MAC
h -t 27.874831976 -s 2 -d -1 -p ACK -e 38 -c 2 -a 0 -i 0 -k MAC
r -t 27.874846976 -s 2 -d 2 -p cbr -e 532 -c 2 -a 0 -i 9 -k AGT
r -t 27.875136276 -s 1 -d -1 -p ACK -e 38 -c 2 -a 0 -i 0 -k MAC
+ -t 28.077985767 -s 1 -d -1 -p cbr -e 512 -c 2 -a 0 -i 10 -k AGT 
- -t 28.077985767 -s 1 -d -1 -p cbr -e 512 -c 2 -a 0 -i 10 -k AGT
h -t 28.077985767 -s 1 -d -1 -p cbr -e 512 -c 2 -a 0 -i 10 -k AGT
+ -t 28.077985767 -s 1 -d 2 -p cbr -e 532 -c 2 -a 0 -i 10 -k RTR 
- -t 28.077985767 -s 1 -d 2 -p cbr -e 532 -c 2 -a 0 -i 10 -k RTR
h -t 28.077985767 -s 1 -d 2 -p cbr -e 532 -c 2 -a 0 -i 10 -k RTR
+ -t 28.078540767 -s 1 -d -1 -p RTS -e 44 -c 2 -a 0 -i 0 -k MAC 
- -t 28.078540767 -s 1 -d -1 -p RTS -e 44 -c 2 -a 0 -i 0 -k MAC
h -t 28.078540767 -s 1 -d -1 -p RTS -e 44 -c 2 -a 0 -i 0 -k MAC
r -t 28.078893067 -s 2 -d -1 -p RTS -e 44 -c 2 -a 0 -i 0 -k MAC
+ -t 28.078903067 -s 2 -d -1 -p CTS -e 38 -c 2 -a 0 -i 0 -k MAC 
- -t 28.078903067 -s 2 -d -1 -p CTS -e 38 -c 2 -a 0 -i 0 -k MAC
h -t 28.078903067 -s 2 -d -1 -p CTS -e 38 -c 2 -a 0 -i 0 -k MAC
r -t 28.079207367 -s 1 -d -1 -p CTS -e 38 -c 2 -a 0 -i 0 -k MAC
+ -t 28.079217367 -s 1 -d 2 -p cbr -e 590 -c 2 -a 0 -i 10 -k MAC 
- -t 28.079217367 -s 1 -d 2 -p cbr -e 590 -c 2 -a 0 -i 10 -k MAC
h -t 28.079217367 -s 1 -d 2 -p cbr -e 590 -c 2 -a 0 -i 10 -k MAC
r -t 28.083937667 -s 2 -d 2 -p cbr -e 532 -c 2 -a 0 -i 10 -k MAC
+ -t 28.083947667 -s 2 -d -1 -p ACK -e 38 -c 2 -a 0 -i 0 -k MAC 
- -t 28.083947667 -s 2 -d -1 -p ACK -e 38 -c 2 -a 0 -i 0 -k MAC
h -t 28.083947667 -s 2 -d -1 -p ACK -e 38 -c 2 -a 0 -i 0 -k MAC
r -t 28.083962667 -s 2 -d 2 -p cbr -e 532 -c 2 -a 0 -i 10 -k AGT
r -t 28.084251967 -s 1 -d -1 -p ACK -e 38 -c 2 -a 0 -i 0 -k MAC
+ -t 28.267234202 -s 1 -d -1 -p cbr -e 512 -c 2 -a 0 -i 11 -k AGT 
- -t 28.267234202 -s 1 -d -1 -p cbr -e 512 -c 2 -a 0 -i 11 -k AGT
h -t 28.267234202 -s 1 -d -1 -p cbr -e 512 -c 2 -a 0 -i 11 -k AGT
+ -t 28.267234202 -s 1 -d 2 -p cbr -e 532 -c 2 -a 0 -i 11 -k RTR 
- -t 28.267234202 -s 1 -d 2 -p cbr -e 532 -c 2 -a 0 -i 11 -k RTR
h -t 28.267234202 -s 1 -d 2 -p cbr -e 532 -c 2 -a 0 -i 11 -k RTR
+ -t 28.267629202 -s 1 -d -1 -p RTS -e 44 -c 2 -a 0 -i 0 -k MAC 
- -t 28.267629202 -s 1 -d -1 -p RTS -e 44 -c 2 -a 0 -i 0 -k MAC
h -t 28.267629202 -s 1 -d -1 -p RTS -e 44 -c 2 -a 0 -i 0 -k MAC
r -t 28.267981502 -s 2 -d -1 -p RTS -e 44 -c 2 -a 0 -i 0 -k MAC
+ -t 28.267991502 -s 2 -d -1 -p CTS -e 38 -c 2 -a 0 -i 0 -k MAC 
- -t 28.267991502 -s 2 -d -1 -p CTS -e 38 -c 2 -a 0 -i 0 -k MAC
h -t 28.267991502 -s 2 -d -1 -p CTS -e 38 -c 2 -a 0 -i 0 -k MAC
r -t 28.268295802 -s 1 -d -1 -p CTS -e 38 -c 2 -a 0 -i 0 -k MAC
+ -t 28.268305802 -s 1 -d 2 -p cbr -e 590 -c 2 -a 0 -i 11 -k MAC 
- -t 28.268305802 -s 1 -d 2 -p cbr -e 590 -c 2 -a 0 -i 11 -k MAC
h -t 28.268305802 -s 1 -d 2 -p cbr -e 590 -c 2 -a 0 -i 11 -k MAC
r -t 28.273026102 -s 2 -d 2 -p cbr -e 532 -c 2 -a 0 -i 11 -k MAC
+ -t 28.273036102 -s 2 -d -1 -p ACK -e 38 -c 2 -a 0 -i 0 -k MAC 
- -t 28.273036102 -s 2 -d -1 -p ACK -e 38 -c 2 -a 0 -i 0 -k MAC
h -t 28.273036102 -s 2 -d -1 -p ACK -e 38 -c 2 -a 0 -i 0 -k MAC
r -t 28.273051102 -s 2 -d 2 -p cbr -e 532 -c 2 -a 0 -i 11 -k AGT
r -t 28.273340402 -s 1 -d -1 -p ACK -e 38 -c 2 -a 0 -i 0 -k MAC
+ -t 28.611398120 -s 1 -d -1 -p cbr -e 512 -c 2 -a 0 -i 12 -k AGT 
- -t 28.611398120 -s 1 -d -1 -p cbr -e 512 -c 2 -a 0 -i 12 -k AGT
h -t 28.611398120 -s 1 -d -1 -p cbr -e 512 -c 2 -a 0 -i 12 -k AGT
+ -t 28.611398120 -s 1 -d 2 -p cbr -e 532 -c 2 -a 0 -i 12 -k RTR 
- -t 28.611398120 -s 1 -d 2 -p cbr -e 532 -c 2 -a 0 -i 12 -k RTR
h -t 28.611398120 -s 1 -d 2 -p cbr -e 532 -c 2 -a 0 -i 12 -k RTR
+ -t 28.611553120 -s 1 -d -1 -p RTS -e 44 -c 2 -a 0 -i 0 -k MAC 
- -t 28.611553120 -s 1 -d -1 -p RTS -e 44 -c 2 -a 0 -i 0 -k MAC
h -t 28.611553120 -s 1 -d -1 -p RTS -e 44 -c 2 -a 0 -i 0 -k MAC
r -t 28.611905421 -s 2 -d -1 -p RTS -e 44 -c 2 -a 0 -i 0 -k MAC
+ -t 28.611915421 -s 2 -d -1 -p CTS -e 38 -c 2 -a 0 -i 0 -k MAC 
- -t 28.611915421 -s 2 -d -1 -p CTS -e 38 -c 2 -a 0 -i 0 -k MAC
h -t 28.611915421 -s 2 -d -1 -p CTS -e 38 -c 2 -a 0 -i 0 -k MAC
r -t 28.612219722 -s 1 -d -1 -p CTS -e 38 -c 2 -a 0 -i 0 -k MAC
+ -t 28.612229722 -s 1 -d 2 -p cbr -e 590 -c 2 -a 0 -i 12 -k MAC 
- -t 28.612229722 -s 1 -d 2 -p cbr -e 590 -c 2 -a 0 -i 12 -k MAC
h -t 28.612229722 -s 1 -d 2 -p cbr -e 590 -c 2 -a 0 -i 12 -k MAC
r -t 28.616950022 -s 2 -d 2 -p cbr -e 532 -c 2 -a 0 -i 12 -k MAC
+ -t 28.616960022 -s 2 -d -1 -p ACK -e 38 -c 2 -a 0 -i 0 -k MAC 
- -t 28.616960022 -s 2 -d -1 -p ACK -e 38 -c 2 -a 0 -i 0 -k MAC
h -t 28.616960022 -s 2 -d -1 -p ACK -e 38 -c 2 -a 0 -i 0 -k MAC
r -t 28.616975022 -s 2 -d 2 -p cbr -e 532 -c 2 -a 0 -i 12 -k AGT
r -t 28.617264323 -s 1 -d -1 -p ACK -e 38 -c 2 -a 0 -i 0 -k MAC
+ -t 28.842819940 -s 1 -d -1 -p cbr -e 512 -c 2 -a 0 -i 13 -k AGT 
- -t 28.842819940 -s 1 -d -1 -p cbr -e 512 -c 2 -a 0 -i 13 -k AGT
h -t 28.842819940 -s 1 -d -1 -p cbr -e 512 -c 2 -a 0 -i 13 -k AGT
+ -t 28.842819940 -s 1 -d 2 -p cbr -e 532 -c 2 -a 0 -i 13 -k RTR 
- -t 28.842819940 -s 1 -d 2 -p cbr -e 532 -c 2 -a 0 -i 13 -k RTR
h -t 28.842819940 -s 1 -d 2 -p cbr -e 532 -c 2 -a 0 -i 13 -k RTR
+ -t 28.843134940 -s 1 -d -1 -p RTS -e 44 -c 2 -a 0 -i 0 -k MAC 
- -t 28.843134940 -s 1 -d -1 -p RTS -e 44 -c 2 -a 0 -i 0 -k MAC
h -t 28.843134940 -s 1 -d -1 -p RTS -e 44 -c 2 -a 0 -i 0 -k MAC
r -t 28.843487241 -s 2 -d -1 -p RTS -e 44 -c 2 -a 0 -i 0 -k MAC
+ -t 28.843497241 -s 2 -d -1 -p CTS -e 38 -c 2 -a 0 -i 0 -k MAC 
- -t 28.843497241 -s 2 -d -1 -p CTS -e 38 -c 2 -a 0 -i 0 -k MAC
h -t 28.843497241 -s 2 -d -1 -p CTS -e 38 -c 2 -a 0 -i 0 -k MAC
r -t 28.843801542 -s 1 -d -1 -p CTS -e 38 -c 2 -a 0 -i 0 -k MAC
+ -t 28.843811542 -s 1 -d 2 -p cbr -e 590 -c 2 -a 0 -i 13 -k MAC 
- -t 28.843811542 -s 1 -d 2 -p cbr -e 590 -c 2 -a 0 -i 13 -k MAC
h -t 28.843811542 -s 1 -d 2 -p cbr -e 590 -c 2 -a 0 -i 13 -k MAC
r -t 28.848531843 -s 2 -d 2 -p cbr -e 532 -c 2 -a 0 -i 13 -k MAC
+ -t 28.848541843 -s 2 -d -1 -p ACK -e 38 -c 2 -a 0 -i 0 -k MAC 
- -t 28.848541843 -s 2 -d -1 -p ACK -e 38 -c 2 -a 0 -i 0 -k MAC
h -t 28.848541843 -s 2 -d -1 -p ACK -e 38 -c 2 -a 0 -i 0 -k MAC
r -t 28.848556843 -s 2 -d 2 -p cbr -e 532 -c 2 -a 0 -i 13 -k AGT
r -t 28.848846144 -s 1 -d -1 -p ACK -e 38 -c 2 -a 0 -i 0 -k MAC
+ -t 29.014373503 -s 1 -d -1 -p cbr -e 512 -c 2 -a 0 -i 14 -k AGT 
- -t 29.014373503 -s 1 -d -1 -p cbr -e 512 -c 2 -a 0 -i 14 -k AGT
h -t 29.014373503 -s 1 -d -1 -p cbr -e 512 -c 2 -a 0 -i 14 -k AGT
+ -t 29.014373503 -s 1 -d 2 -p cbr -e 532 -c 2 -a 0 -i 14 -k RTR 
- -t 29.014373503 -s 1 -d 2 -p cbr -e 532 -c 2 -a 0 -i 14 -k RTR
h -t 29.014373503 -s 1 -d 2 -p cbr -e 532 -c 2 -a 0 -i 14 -k RTR
+ -t 29.014468503 -s 1 -d -1 -p RTS -e 44 -c 2 -a 0 -i 0 -k MAC 
- -t 29.014468503 -s 1 -d -1 -p RTS -e 44 -c 2 -a 0 -i 0 -k MAC
h -t 29.014468503 -s 1 -d -1 -p RTS -e 44 -c 2 -a 0 -i 0 -k MAC
r -t 29.014820804 -s 2 -d -1 -p RTS -e 44 -c 2 -a 0 -i 0 -k MAC
+ -t 29.014830804 -s 2 -d -1 -p CTS -e 38 -c 2 -a 0 -i 0 -k MAC 
- -t 29.014830804 -s 2 -d -1 -p CTS -e 38 -c 2 -a 0 -i 0 -k MAC
h -t 29.014830804 -s 2 -d -1 -p CTS -e 38 -c 2 -a 0 -i 0 -k MAC
r -t 29.015135106 -s 1 -d -1 -p CTS -e 38 -c 2 -a 0 -i 0 -k MAC
+ -t 29.015145106 -s 1 -d 2 -p cbr -e 590 -c 2 -a 0 -i 14 -k MAC 
- -t 29.015145106 -s 1 -d 2 -p cbr -e 590 -c 2 -a 0 -i 14 -k MAC
h -t 29.015145106 -s 1 -d 2 -p cbr -e 590 -c 2 -a 0 -i 14 -k MAC