M 0.00000 0 (0.00, 0.00, 0.00), (50.00, 50.00), 5.00
M 0.00000 1 (0.00, 0.00, 0.00), (60.00, 40.00), 10.00
M 0.00000 2 (0.00, 0.00, 0.00), (60.00, 40.00), 10.00
s 1.000415000 _1_ MAC  --- 0 ARP 86 [0 ffffffff 1 806] ------- [REQUEST 1/1 0/0]
r 1.001103000 _2_ MAC  --- 0 ARP 28 [0 ffffffff 1 806] ------- [REQUEST 1/1 0/0]
r 1.001103017 _0_ MAC  --- 0 ARP 28 [0 ffffffff 1 806] ------- [REQUEST 1/1 0/0]
r 1.001103033 _9_ MAC  --- 0 ARP 28 [0 ffffffff 1 806] ------- [REQUEST 1/1 0/0]
r 1.001103033 _8_ MAC  --- 0 ARP 28 [0 ffffffff 1 806] ------- [REQUEST 1/1 0/0]
r 1.001103033 _7_ MAC  --- 0 ARP 28 [0 ffffffff 1 806] ------- [REQUEST 1/1 0/0]
r 1.001103033 _6_ MAC  --- 0 ARP 28 [0 ffffffff 1 806] ------- [REQUEST 1/1 0/0]
r 1.001103033 _5_ MAC  --- 0 ARP 28 [0 ffffffff 1 806] ------- [REQUEST 1/1 0/0]
r 1.001103033 _4_ MAC  --- 0 ARP 28 [0 ffffffff 1 806] ------- [REQUEST 1/1 0/0]
r 1.001103033 _3_ MAC  --- 0 ARP 28 [0 ffffffff 1 806] ------- [REQUEST 1/1 0/0]
s 1.001398017 _0_ MAC  --- 0 RTS 44 [52e 1 0 0] 
r 1.001750035 _1_ MAC  --- 0 RTS 44 [52e 1 0 0] 
s 1.001760035 _1_ MAC  --- 0 CTS 38 [3f4 0 0 0] 
r 1.002064052 _0_ MAC  --- 0 CTS 38 [3f4 0 0 0] 
s 1.002074052 _0_ MAC  --- 0 ARP 86 [13a 1 0 806] ------- [REPLY 0/0 1/1]
r 1.002762069 _1_ MAC  --- 0 ARP 28 [13a 1 0 806] ------- [REPLY 0/0 1/1]
s 1.002772069 _1_ MAC  --- 0 ACK 38 [0 0 0 0] 
r 1.003076087 _0_ MAC  --- 0 ACK 38 [0 0 0 0] 
s 1.003146069 _1_ MAC  --- 0 RTS 44 [58e 0 1 0] 
r 1.003498087 _0_ MAC  --- 0 RTS 44 [58e 0 1 0] 
s 1.003508087 _0_ MAC  --- 0 CTS 38 [454 1 0 0] 
r 1.003812104 _1_ MAC  --- 0 CTS 38 [454 1 0 0] 
s 1.003822104 _1_ MAC  --- 0 tcp 98 [13a 0 1 800] ------- [1:0 0:0 32 0] [0 0] 0 0
r 1.004606121 _0_ MAC  --- 0 tcp 40 [13a 0 1 800] ------- [1:0 0:0 32 0] [0 0] 1 0
s 1.004616121 _0_ MAC  --- 0 ACK 38 [0 1 0 0] 
r 1.004920139 _1_ MAC  --- 0 ACK 38 [0 1 0 0] 
s 1.004990121 _0_ MAC  --- 0 RTS 44 [58e 1 0 0] 
r 1.005342139 _1_ MAC  --- 0 RTS 44 [58e 1 0 0] 
s 1.005352139 _1_ MAC  --- 0 CTS 38 [454 0 0 0] 
r 1.005656156 _0_ MAC  --- 0 CTS 38 [454 0 0 0] 
s 1.005666156 _0_ MAC  --- 1 ack 98 [13a 1 0 800] ------- [0:0 1:0 32 0] [0 0] 0 0
r 1.006450174 _1_ MAC  --- 1 ack 40 [13a 1 0 800] ------- [0:0 1:0 32 0] [0 0] 1 0
s 1.006460174 _1_ MAC  --- 0 ACK 38 [0 0 0 0] 
r 1.006764191 _0_ MAC  --- 0 ACK 38 [0 0 0 0] 
s 1.007334174 _1_ MAC  --- 0 RTS 44 [24ce 0 1 0] 
r 1.007686191 _0_ MAC  --- 0 RTS 44 [24ce 0 1 0] 
s 1.007696191 _0_ MAC  --- 0 CTS 38 [2394 1 0 0] 
r 1.008000208 _1_ MAC  --- 0 CTS 38 [2394 1 0 0] 
s 1.008010208 _1_ MAC  --- 2 tcp 1098 [13a 0 1 800] ------- [1:0 0:0 32 0] [1 0] 0 0
r 1.016794226 _0_ MAC  --- 2 tcp 1040 [13a 0 1 800] ------- [1:0 0:0 32 0] [1 0] 1 0
s 1.016804226 _0_ MAC  --- 0 ACK 38 [0 1 0 0] 
r 1.017108243 _1_ MAC  --- 0 ACK 38 [0 1 0 0] 
s 1.017398243 _1_ MAC  --- 0 RTS 44 [24ce 0 1 0] 
r 1.017750261 _0_ MAC  --- 0 RTS 44 [24ce 0 1 0] 
s 1.017760261 _0_ MAC  --- 0 CTS 38 [2394 1 0 0] 
r 1.018064279 _1_ MAC  --- 0 CTS 38 [2394 1 0 0] 
s 1.018074279 _1_ MAC  --- 3 tcp 1098 [13a 0 1 800] ------- [1:0 0:0 32 0] [2 0] 0 0
r 1.026858296 _0_ MAC  --- 3 tcp 1040 [13a 0 1 800] ------- [1:0 0:0 32 0] [2 0] 1 0
s 1.026868296 _0_ MAC  --- 0 ACK 38 [0 1 0 0] 
r 1.027172314 _1_ MAC  --- 0 ACK 38 [0 1 0 0] 
s 1.027342296 _0_ MAC  --- 0 RTS 44 [58e 1 0 0] 
r 1.027694314 _1_ MAC  --- 0 RTS 44 [58e 1 0 0] 
s 1.027704314 _1_ MAC  --- 0 CTS 38 [454 0 0 0] 
r 1.028008332 _0_ MAC  --- 0 CTS 38 [454 0 0 0] 
s 1.028018332 _0_ MAC  --- 4 ack 98 [13a 1 0 800] ------- [0:0 1:0 32 0] [1 0] 0 0
r 1.028802350 _1_ MAC  --- 4 ack 40 [13a 1 0 800] ------- [0:0 1:0 32 0] [1 0] 1 0
s 1.028812350 _1_ MAC  --- 0 ACK 38 [0 0 0 0] 
r 1.029116367 _0_ MAC  --- 0 ACK 38 [0 0 0 0] 
s 1.029206350 _1_ MAC  --- 0 RTS 44 [24ce 0 1 0] 
r 1.029558367 _0_ MAC  --- 0 RTS 44 [24ce 0 1 0] 
s 1.029568367 _0_ MAC  --- 0 CTS 38 [2394 1 0 0] 
r 1.029872385 _1_ MAC  --- 0 CTS 38 [2394 1 0 0] 
s 1.029882385 _1_ MAC  --- 6 tcp 1098 [13a 0 1 800] ------- [1:0 0:0 32 0] [3 0] 0 0
r 1.038666403 _0_ MAC  --- 6 tcp 1040 [13a 0 1 800] ------- [1:0 0:0 32 0] [3 0] 1 0
s 1.038676403 _0_ MAC  --- 0 ACK 38 [0 1 0 0] 
r 1.038980421 _1_ MAC  --- 0 ACK 38 [0 1 0 0] 
s 1.039370421 _1_ MAC  --- 0 RTS 44 [24ce 0 1 0] 
r 1.039722439 _0_ MAC  --- 0 RTS 44 [24ce 0 1 0] 
s 1.039732439 _0_ MAC  --- 0 CTS 38 [2394 1 0 0] 
r 1.040036457 _1_ MAC  --- 0 CTS 38 [2394 1 0 0] 
s 1.040046457 _1_ MAC  --- 7 tcp 1098 [13a 0 1 800] ------- [1:0 0:0 32 0] [4 0] 0 0
r 1.048830475 _0_ MAC  --- 7 tcp 1040 [13a 0 1 800] ------- [1:0 0:0 32 0] [4 0] 1 0
s 1.048840475 _0_ MAC  --- 0 ACK 38 [0 1 0 0] 
r 1.049144493 _1_ MAC  --- 0 ACK 38 [0 1 0 0] 
s 1.049294475 _0_ MAC  --- 0 RTS 44 [58e 1 0 0] 
r 1.049646493 _1_ MAC  --- 0 RTS 44 [58e 1 0 0] 
s 1.049656493 _1_ MAC  --- 0 CTS 38 [454 0 0 0] 
r 1.049960511 _0_ MAC  --- 0 CTS 38 [454 0 0 0] 
s 1.049970511 _0_ MAC  --- 5 ack 98 [13a 1 0 800] ------- [0:0 1:0 32 0] [2 0] 0 0
r 1.050754530 _1_ MAC  --- 5 ack 40 [13a 1 0 800] ------- [0:0 1:0 32 0] [2 0] 1 0
s 1.050764530 _1_ MAC  --- 0 ACK 38 [0 0 0 0] 
r 1.051068548 _0_ MAC  --- 0 ACK 38 [0 0 0 0] 
s 1.051318548 _0_ MAC  --- 0 RTS 44 [58e 1 0 0] 
r 1.051670566 _1_ MAC  --- 0 RTS 44 [58e 1 0 0] 
s 1.051680566 _1_ MAC  --- 0 CTS 38 [454 0 0 0] 
r 1.051984584 _0_ MAC  --- 0 CTS 38 [454 0 0 0] 
s 1.051994584 _0_ MAC  --- 8 ack 98 [13a 1 0 800] ------- [0:0 1:0 32 0] [3 0] 0 0
r 1.052778602 _1_ MAC  --- 8 ack 40 [13a 1 0 800] ------- [0:0 1:0 32 0] [3 0] 1 0
s 1.052788602 _1_ MAC  --- 0 ACK 38 [0 0 0 0] 
r 1.053092620 _0_ MAC  --- 0 ACK 38 [0 0 0 0] 
s 1.053162602 _1_ MAC  --- 0 RTS 44 [24ce 0 1 0] 
r 1.053514620 _0_ MAC  --- 0 RTS 44 [24ce 0 1 0] 
s 1.053524620 _0_ MAC  --- 0 CTS 38 [2394 1 0 0] 
r 1.053828639 _1_ MAC  --- 0 CTS 38 [2394 1 0 0] 
s 1.053838639 _1_ MAC  --- 10 tcp 1098 [13a 0 1 800] ------- [1:0 0:0 32 0] [5 0] 0 0
r 1.062622657 _0_ MAC  --- 10 tcp 1040 [13a 0 1 800] ------- [1:0 0:0 32 0] [5 0] 1 0
s 1.062632657 _0_ MAC  --- 0 ACK 38 [0 1 0 0] 
r 1.062936675 _1_ MAC  --- 0 ACK 38 [0 1 0 0] 
s 1.063006675 _1_ MAC  --- 0 RTS 44 [24ce 0 1 0] 
r 1.063358694 _0_ MAC  --- 0 RTS 44 [24ce 0 1 0] 
s 1.063368694 _0_ MAC  --- 0 CTS 38 [2394 1 0 0] 
r 1.063672712 _1_ MAC  --- 0 CTS 38 [2394 1 0 0] 
s 1.063682712 _1_ MAC  --- 11 tcp 1098 [13a 0 1 800] ------- [1:0 0:0 32 0] [6 0] 0 0
r 1.072466731 _0_ MAC  --- 11 tcp 1040 [13a 0 1 800] ------- [1:0 0:0 32 0] [6 0] 1 0
s 1.072476731 _0_ MAC  --- 0 ACK 38 [0 1 0 0] 
r 1.072780749 _1_ MAC  --- 0 ACK 38 [0 1 0 0] 
s 1.073010731 _0_ MAC  --- 0 RTS 44 [58e 1 0 0] 
r 1.073362749 _1_ MAC  --- 0 RTS 44 [58e 1 0 0] 
s 1.073372749 _1_ MAC  --- 0 CTS 38 [454 0 0 0] 
r 1.073676768 _0_ MAC  --- 0 CTS 38 [454 0 0 0] 
s 1.073686768 _0_ MAC  --- 9 ack 98 [13a 1 0 800] ------- [0:0 1:0 32 0] [4 0] 0 0
r 1.074470786 _1_ MAC  --- 9 ack 40 [13a 1 0 800] ------- [0:0 1:0 32 0] [4 0] 1 0
s 1.074480786 _1_ MAC  --- 0 ACK 38 [0 0 0 0] 
r 1.074784805 _0_ MAC  --- 0 ACK 38 [0 0 0 0] 
s 1.074894786 _1_ MAC  --- 0 RTS 44 [24ce 0 1 0] 
r 1.075246805 _0_ MAC  --- 0 RTS 44 [24ce 0 1 0] 
s 1.075256805 _0_ MAC  --- 0 CTS 38 [2394 1 0 0] 
r 1.075560823 _1_ MAC  --- 0 CTS 38 [2394 1 0 0] 
s 1.075570823 _1_ MAC  --- 12 tcp 1098 [13a 0 1 800] ------- [1:0 0:0 32 0] [7 0] 0 0
r 1.084354842 _0_ MAC  --- 12 tcp 1040 [13a 0 1 800] ------- [1:0 0:0 32 0] [7 0] 1 0
s 1.084364842 _0_ MAC  --- 0 ACK 38 [0 1 0 0] 
r 1.084668861 _1_ MAC  --- 0 ACK 38 [0 1 0 0] 
s 1.084898861 _1_ MAC  --- 0 RTS 44 [24ce 0 1 0] 
r 1.085250880 _0_ MAC  --- 0 RTS 44 [24ce 0 1 0] 
s 1.085260880 _0_ MAC  --- 0 CTS 38 [2394 1 0 0] 
r 1.085564898 _1_ MAC  --- 0 CTS 38 [2394 1 0 0] 
s 1.085574898 _1_ MAC  --- 13 tcp 1098 [13a 0 1 800] ------- [1:0 0:0 32 0] [8 0] 0 0
r 1.094358917 _0_ MAC  --- 13 tcp 1040 [13a 0 1 800] ------- [1:0 0:0 32 0] [8 0] 1 0
s 1.094368917 _0_ MAC  --- 0 ACK 38 [0 1 0 0] 
r 1.094672936 _1_ MAC  --- 0 ACK 38 [0 1 0 0] 
s 1.094922917 _0_ MAC  --- 0 RTS 44 [58e 1 0 0] 
r 1.095274936 _1_ MAC  --- 0 RTS 44 [58e 1 0 0] 
s 1.095284936 _1_ MAC  --- 0 CTS 38 [454 0 0 0] 
r 1.095588955 _0_ MAC  --- 0 CTS 38 [454 0 0 0] 
s 1.095598955 _0_ MAC  --- 14 ack 98 [13a 1 0 800] ------- [0:0 1:0 32 0] [5 0] 0 0
r 1.096382974 _1_ MAC  --- 14 ack 40 [13a 1 0 800] ------- [0:0 1:0 32 0] [5 0] 1 0
s 1.096392974 _1_ MAC  --- 0 ACK 38 [0 0 0 0] 
r 1.096696993 _0_ MAC  --- 0 ACK 38 [0 0 0 0] 
s 1.097126974 _1_ MAC  --- 0 RTS 44 [24ce 0 1 0] 
r 1.097478993 _0_ MAC  --- 0 RTS 44 [24ce 0 1 0] 
s 1.097488993 _0_ MAC  --- 0 CTS 38 [2394 1 0 0] 
r 1.097793012 _1_ MAC  --- 0 CTS 38 [2394 1 0 0] 
s 1.097803012 _1_ MAC  --- 16 tcp 1098 [13a 0 1 800] ------- [1:0 0:0 32 0] [9 0] 0 0
r 1.106587031 _0_ MAC  --- 16 tcp 1040 [13a 0 1 800] ------- [1:0 0:0 32 0] [9 0] 1 0
s 1.106597031 _0_ MAC  --- 0 ACK 38 [0 1 0 0] 
r 1.106901050 _1_ MAC  --- 0 ACK 38 [0 1 0 0] 
s 1.106971031 _0_ MAC  --- 0 RTS 44 [58e 1 0 0] 
r 1.107323050 _1_ MAC  --- 0 RTS 44 [58e 1 0 0] 
s 1.107333050 _1_ MAC  --- 0 CTS 38 [454 0 0 0] 
r 1.107637069 _0_ MAC  --- 0 CTS 38 [454 0 0 0] 
s 1.107647069 _0_ MAC  --- 15 ack 98 [13a 1 0 800] ------- [0:0 1:0 32 0] [6 0] 0 0
r 1.108431088 _1_ MAC  --- 15 ack 40 [13a 1 0 800] ------- [0:0 1:0 32 0] [6 0] 1 0
s 1.108441088 _1_ MAC  --- 0 ACK 38 [0 0 0 0] 
r 1.108745108 _0_ MAC  --- 0 ACK 38 [0 0 0 0] 
s 1.109155108 _0_ MAC  --- 0 RTS 44 [58e 1 0 0] 
r 1.109507127 _1_ MAC  --- 0 RTS 44 [58e 1 0 0] 
s 1.109517127 _1_ MAC  --- 0 CTS 38 [454 0 0 0] 
r 1.109821146 _0_ MAC  --- 0 CTS 38 [454 0 0 0] 
s 1.109831146 _0_ MAC  --- 18 ack 98 [13a 1 0 800] ------- [0:0 1:0 32 0] [7 0] 0 0
r 1.110615165 _1_ MAC  --- 18 ack 40 [13a 1 0 800] ------- [0:0 1:0 32 0] [7 0] 1 0
s 1.110625165 _1_ MAC  --- 0 ACK 38 [0 0 0 0] 
r 1.110929184 _0_ MAC  --- 0 ACK 38 [0 0 0 0] 
s 1.111019184 _0_ MAC  --- 0 RTS 44 [58e 1 0 0] 
r 1.111371204 _1_ MAC  --- 0 RTS 44 [58e 1 0 0] 
s 1.111381204 _1_ MAC  --- 0 CTS 38 [454 0 0 0] 
r 1.111685223 _0_ MAC  --- 0 CTS 38 [454 0 0 0] 
s 1.111695223 _0_ MAC  --- 19 ack 98 [13a 1 0 800] ------- [0:0 1:0 32 0] [8 0] 0 0
r 1.112479242 _1_ MAC  --- 19 ack 40 [13a 1 0 800] ------- [0:0 1:0 32 0] [8 0] 1 0
s 1.112489242 _1_ MAC  --- 0 ACK 38 [0 0 0 0] 
r 1.112793261 _0_ MAC  --- 0 ACK 38 [0 0 0 0] 
s 1.112963242 _1_ MAC  --- 0 RTS 44 [24ce 0 1 0] 
r 1.113315261 _0_ MAC  --- 0 RTS 44 [24ce 0 1 0] 
s 1.113325261 _0_ MAC  --- 0 CTS 38 [2394 1 0 0] 
r 1.113629281 _1_ MAC  --- 0 CTS 38 [2394 1 0 0] 
s 1.113639281 _1_ MAC  --- 17 tcp 1098 [13a 0 1 800] ------- [1:0 0:0 32 0] [10 0] 0 0
r 1.122423300 _0_ MAC  --- 17 tcp 1040 [13a 0 1 800] ------- [1:0 0:0 32 0] [10 0] 1 0
s 1.122433300 _0_ MAC  --- 0 ACK 38 [0 1 0 0] 
r 1.122737319 _1_ MAC  --- 0 ACK 38 [0 1 0 0] 
s 1.122967300 _0_ MAC  --- 0 RTS 44 [58e 1 0 0] 
r 1.123319319 _1_ MAC  --- 0 RTS 44 [58e 1 0 0] 
s 1.123329319 _1_ MAC  --- 0 CTS 38 [454 0 0 0] 
r 1.123633339 _0_ MAC  --- 0 CTS 38 [454 0 0 0] 
s 1.123643339 _0_ MAC  --- 22 ack 98 [13a 1 0 800] ------- [0:0 1:0 32 0] [9 0] 0 0
r 1.124427358 _1_ MAC  --- 22 ack 40 [13a 1 0 800] ------- [0:0 1:0 32 0] [9 0] 1 0
s 1.124437358 _1_ MAC  --- 0 ACK 38 [0 0 0 0] 
r 1.124741378 _0_ MAC  --- 0 ACK 38 [0 0 0 0] 
s 1.124931378 _0_ MAC  --- 0 RTS 44 [58e 1 0 0] 
r 1.125283397 _1_ MAC  --- 0 RTS 44 [58e 1 0 0] 
s 1.125293397 _1_ MAC  --- 0 CTS 38 [454 0 0 0] 
r 1.125597417 _0_ MAC  --- 0 CTS 38 [454 0 0 0] 
s 1.125607417 _0_ MAC  --- 29 ack 98 [13a 1 0 800] ------- [0:0 1:0 32 0] [10 0] 0 0
r 1.126391436 _1_ MAC  --- 29 ack 40 [13a 1 0 800] ------- [0:0 1:0 32 0] [10 0] 1 0
s 1.126401436 _1_ MAC  --- 0 ACK 38 [0 0 0 0] 
r 1.126705456 _0_ MAC  --- 0 ACK 38 [0 0 0 0] 
s 1.126795436 _1_ MAC  --- 0 RTS 44 [24ce 0 1 0] 
r 1.127147456 _0_ MAC  --- 0 RTS 44 [24ce 0 1 0] 
s 1.127157456 _0_ MAC  --- 0 CTS 38 [2394 1 0 0] 
r 1.127461475 _1_ MAC  --- 0 CTS 38 [2394 1 0 0] 
s 1.127471475 _1_ MAC  --- 20 tcp 1098 [13a 0 1 800] ------- [1:0 0:0 32 0] [11 0] 0 0
r 1.136255495 _0_ MAC  --- 20 tcp 1040 [13a 0 1 800] ------- [1:0 0:0 32 0] [11 0] 1 0
s 1.136265495 _0_ MAC  --- 0 ACK 38 [0 1 0 0] 
r 1.136569514 _1_ MAC  --- 0 ACK 38 [0 1 0 0] 
s 1.136659495 _0_ MAC  --- 0 RTS 44 [58e 1 0 0] 
r 1.137011514 _1_ MAC  --- 0 RTS 44 [58e 1 0 0] 
s 1.137021514 _1_ MAC  --- 0 CTS 38 [454 0 0 0] 
r 1.137325534 _0_ MAC  --- 0 CTS 38 [454 0 0 0] 
s 1.137335534 _0_ MAC  --- 34 ack 98 [13a 1 0 800] ------- [0:0 1:0 32 0] [11 0] 0 0
r 1.138119554 _1_ MAC  --- 34 ack 40 [13a 1 0 800] ------- [0:0 1:0 32 0] [11 0] 1 0
s 1.138129554 _1_ MAC  --- 0 ACK 38 [0 0 0 0] 
r 1.138433573 _0_ MAC  --- 0 ACK 38 [0 0 0 0] 
s 1.138723554 _1_ MAC  --- 0 RTS 44 [24ce 0 1 0] 
r 1.139075573 _0_ MAC  --- 0 RTS 44 [24ce 0 1 0] 
s 1.139085573 _0_ MAC  --- 0 CTS 38 [2394 1 0 0] 
r 1.139389593 _1_ MAC  --- 0 CTS 38 [2394 1 0 0] 
s 1.139399593 _1_ MAC  --- 21 tcp 1098 [13a 0 1 800] ------- [1:0 0:0 32 0] [12 0] 0 0
r 1.148183613 _0_ MAC  --- 21 tcp 1040 [13a 0 1 800] ------- [1:0 0:0 32 0] [12 0] 1 0
s 1.148193613 _0_ MAC  --- 0 ACK 38 [0 1 0 0] 
r 1.148497633 _1_ MAC  --- 0 ACK 38 [0 1 0 0] 
s 1.148647613 _0_ MAC  --- 0 RTS 44 [58e 1 0 0] 
r 1.148999633 _1_ MAC  --- 0 RTS 44 [58e 1 0 0] 
s 1.149009633 _1_ MAC  --- 0 CTS 38 [454 0 0 0] 
r 1.149313652 _0_ MAC  --- 0 CTS 38 [454 0 0 0] 
s 1.149323652 _0_ MAC  --- 37 ack 98 [13a 1 0 800] ------- [0:0 1:0 32 0] [12 0] 0 0
r 1.150107672 _1_ MAC  --- 37 ack 40 [13a 1 0 800] ------- [0:0 1:0 32 0] [12 0] 1 0
s 1.150117672 _1_ MAC  --- 0 ACK 38 [0 0 0 0] 
r 1.150421692 _0_ MAC  --- 0 ACK 38 [0 0 0 0] 
s 1.150891672 _1_ MAC  --- 0 RTS 44 [24ce 0 1 0] 
r 1.151243692 _0_ MAC  --- 0 RTS 44 [24ce 0 1 0] 
s 1.151253692 _0_ MAC  --- 0 CTS 38 [2394 1 0 0] 
r 1.151557712 _1_ MAC  --- 0 CTS 38 [2394 1 0 0] 
s 1.151567712 _1_ MAC  --- 23 tcp 1098 [13a 0 1 800] ------- [1:0 0:0 32 0] [13 0] 0 0
r 1.160351732 _0_ MAC  --- 23 tcp 1040 [13a 0 1 800] ------- [1:0 0:0 32 0] [13 0] 1 0
s 1.160361732 _0_ MAC  --- 0 ACK 38 [0 1 0 0] 
r 1.160665752 _1_ MAC  --- 0 ACK 38 [0 1 0 0] 
s 1.160915732 _0_ MAC  --- 0 RTS 44 [58e 1 0 0] 
r 1.161267752 _1_ MAC  --- 0 RTS 44 [58e 1 0 0] 
s 1.161277752 _1_ MAC  --- 0 CTS 38 [454 0 0 0] 
r 1.161581772 _0_ MAC  --- 0 CTS 38 [454 0 0 0] 
s 1.161591772 _0_ MAC  --- 40 ack 98 [13a 1 0 800] ------- [0:0 1:0 32 0] [13 0] 0 0
r 1.162375792 _1_ MAC  --- 40 ack 40 [13a 1 0 800] ------- [0:0 1:0 32 0] [13 0] 1 0
s 1.162385792 _1_ MAC  --- 0 ACK 38 [0 0 0 0] 
r 1.162689812 _0_ MAC  --- 0 ACK 38 [0 0 0 0] 
s 1.163119792 _1_ MAC  --- 0 RTS 44 [24ce 0 1 0] 
r 1.163471813 _0_ MAC  --- 0 RTS 44 [24ce 0 1 0] 
s 1.163481813 _0_ MAC  --- 0 CTS 38 [2394 1 0 0] 
r 1.163785833 _1_ MAC  --- 0 CTS 38 [2394 1 0 0] 
s 1.163795833 _1_ MAC  --- 24 tcp 1098 [13a 0 1 800] ------- [1:0 0:0 32 0] [14 0] 0 0
r 1.172579853 _0_ MAC  --- 24 tcp 1040 [13a 0 1 800] ------- [1:0 0:0 32 0] [14 0] 1 0
s 1.172589853 _0_ MAC  --- 0 ACK 38 [0 1 0 0] 
r 1.172893873 _1_ MAC  --- 0 ACK 38 [0 1 0 0] 
s 1.173063853 _0_ MAC  --- 0 RTS 44 [58e 1 0 0] 
r 1.173415873 _1_ MAC  --- 0 RTS 44 [58e 1 0 0] 
s 1.173425873 _1_ MAC  --- 0 CTS 38 [454 0 0 0] 
r 1.173729893 _0_ MAC  --- 0 CTS 38 [454 0 0 0] 
s 1.173739893 _0_ MAC  --- 43 ack 98 [13a 1 0 800] ------- [0:0 1:0 32 0] [14 0] 0 0
r 1.174523914 _1_ MAC  --- 43 ack 40 [13a 1 0 800] ------- [0:0 1:0 32 0] [14 0] 1 0
s 1.174533914 _1_ MAC  --- 0 ACK 38 [0 0 0 0] 
r 1.174837934 _0_ MAC  --- 0 ACK 38 [0 0 0 0] 
s 1.175107914 _1_ MAC  --- 0 RTS 44 [24ce 0 1 0] 
r 1.175459934 _0_ MAC  --- 0 RTS 44 [24ce 0 1 0] 
s 1.175469934 _0_ MAC  --- 0 CTS 38 [2394 1 0 0] 
r 1.175773954 _1_ MAC  --- 0 CTS 38 [2394 1 0 0] 
s 1.175783954 _1_ MAC  --- 25 tcp 1098 [13a 0 1 800] ------- [1:0 0:0 32 0] [15 0] 0 0
r 1.184567975 _0_ MAC  --- 25 tcp 1040 [13a 0 1 800] ------- [1:0 0:0 32 0] [15 0] 1 0
s 1.184577975 _0_ MAC  --- 0 ACK 38 [0 1 0 0] 
r 1.184881995 _1_ MAC  --- 0 ACK 38 [0 1 0 0] 
s 1.185211975 _0_ MAC  --- 0 RTS 44 [58e 1 0 0] 
s 1.185211995 _1_ MAC  --- 0 RTS 44 [24ce 0 1 0] 
s 1.186457995 _1_ MAC  --- 0 RTS 44 [24ce 0 1 0] 
r 1.186810016 _0_ MAC  --- 0 RTS 44 [24ce 0 1 0] 
s 1.186820016 _0_ MAC  --- 0 CTS 38 [2394 1 0 0] 
r 1.187124036 _1_ MAC  --- 0 CTS 38 [2394 1 0 0] 
s 1.187134036 _1_ MAC  --- 26 tcp 1098 [13a 0 1 800] ------- [1:0 0:0 32 0] [16 0] 0 0
r 1.195918057 _0_ MAC  --- 26 tcp 1040 [13a 0 1 800] ------- [1:0 0:0 32 0] [16 0] 1 0
s 1.195928057 _0_ MAC  --- 0 ACK 38 [0 1 0 0] 
r 1.196232077 _1_ MAC  --- 0 ACK 38 [0 1 0 0] 
s 1.196742057 _0_ MAC  --- 0 RTS 44 [58e 1 0 0] 
r 1.197094078 _1_ MAC  --- 0 RTS 44 [58e 1 0 0] 
s 1.197104078 _1_ MAC  --- 0 CTS 38 [454 0 0 0] 
r 1.197408098 _0_ MAC  --- 0 CTS 38 [454 0 0 0] 
s 1.197418098 _0_ MAC  --- 46 ack 98 [13a 1 0 800] ------- [0:0 1:0 32 0] [15 0] 0 0
r 1.198202119 _1_ MAC  --- 46 ack 40 [13a 1 0 800] ------- [0:0 1:0 32 0] [15 0] 1 0
s 1.198212119 _1_ MAC  --- 0 ACK 38 [0 0 0 0] 
r 1.198516140 _0_ MAC  --- 0 ACK 38 [0 0 0 0] 
s 1.198566140 _0_ MAC  --- 0 RTS 44 [58e 1 0 0] 
r 1.198918160 _1_ MAC  --- 0 RTS 44 [58e 1 0 0] 
s 1.198928160 _1_ MAC  --- 0 CTS 38 [454 0 0 0] 
r 1.199232181 _0_ MAC  --- 0 CTS 38 [454 0 0 0] 
s 1.199242181 _0_ MAC  --- 47 ack 98 [13a 1 0 800] ------- [0:0 1:0 32 0] [16 0] 0 0
r 1.200026202 _1_ MAC  --- 47 ack 40 [13a 1 0 800] ------- [0:0 1:0 32 0] [16 0] 1 0
s 1.200036202 _1_ MAC  --- 0 ACK 38 [0 0 0 0] 
r 1.200340223 _0_ MAC  --- 0 ACK 38 [0 0 0 0] 
s 1.200410202 _1_ MAC  --- 0 RTS 44 [24ce 0 1 0] 
r 1.200762223 _0_ MAC  --- 0 RTS 44 [24ce 0 1 0] 
s 1.200772223 _0_ MAC  --- 0 CTS 38 [2394 1 0 0] 
r 1.201076243 _1_ MAC  --- 0 CTS 38 [2394 1 0 0] 
s 1.201086243 _1_ MAC  --- 27 tcp 1098 [13a 0 1 800] ------- [1:0 0:0 32 0] [17 0] 0 0
r 1.209870264 _0_ MAC  --- 27 tcp 1040 [13a 0 1 800] ------- [1:0 0:0 32 0] [17 0] 1 0
s 1.209880264 _0_ MAC  --- 0 ACK 38 [0 1 0 0] 
r 1.210184285 _1_ MAC  --- 0 ACK 38 [0 1 0 0] 
s 1.210434264 _0_ MAC  --- 0 RTS 44 [58e 1 0 0] 
r 1.210786285 _1_ MAC  --- 0 RTS 44 [58e 1 0 0] 
s 1.210796285 _1_ MAC  --- 0 CTS 38 [454 0 0 0] 
r 1.211100306 _0_ MAC  --- 0 CTS 38 [454 0 0 0] 
s 1.211110306 _0_ MAC  --- 52 ack 98 [13a 1 0 800] ------- [0:0 1:0 32 0] [17 0] 0 0
r 1.211894327 _1_ MAC  --- 52 ack 40 [13a 1 0 800] ------- [0:0 1:0 32 0] [17 0] 1 0
s 1.211904327 _1_ MAC  --- 0 ACK 38 [0 0 0 0] 
r 1.212208348 _0_ MAC  --- 0 ACK 38 [0 0 0 0] 
s 1.212378327 _1_ MAC  --- 0 RTS 44 [24ce 0 1 0] 
r 1.212730348 _0_ MAC  --- 0 RTS 44 [24ce 0 1 0] 
s 1.212740348 _0_ MAC  --- 0 CTS 38 [2394 1 0 0] 
r 1.213044369 _1_ MAC  --- 0 CTS 38 [2394 1 0 0] 
s 1.213054369 _1_ MAC  --- 28 tcp 1098 [13a 0 1 800] ------- [1:0 0:0 32 0] [18 0] 0 0
r 1.221838390 _0_ MAC  --- 28 tcp 1040 [13a 0 1 800] ------- [1:0 0:0 32 0] [18 0] 1 0
s 1.221848390 _0_ MAC  --- 0 ACK 38 [0 1 0 0] 
r 1.222152411 _1_ MAC  --- 0 ACK 38 [0 1 0 0] 
s 1.222242390 _0_ MAC  --- 0 RTS 44 [58e 1 0 0] 
r 1.222594411 _1_ MAC  --- 0 RTS 44 [58e 1 0 0] 
s 1.222604411 _1_ MAC  --- 0 CTS 38 [454 0 0 0] 
r 1.222908432 _0_ MAC  --- 0 CTS 38 [454 0 0 0] 
s 1.222918432 _0_ MAC  --- 55 ack 98 [13a 1 0 800] ------- [0:0 1:0 32 0] [18 0] 0 0
r 1.223702453 _1_ MAC  --- 55 ack 40 [13a 1 0 800] ------- [0:0 1:0 32 0] [18 0] 1 0
s 1.223712453 _1_ MAC  --- 0 ACK 38 [0 0 0 0] 
r 1.224016475 _0_ MAC  --- 0 ACK 38 [0 0 0 0] 
s 1.224246453 _1_ MAC  --- 0 RTS 44 [24ce 0 1 0] 
r 1.224598475 _0_ MAC  --- 0 RTS 44 [24ce 0 1 0] 
s 1.224608475 _0_ MAC  --- 0 CTS 38 [2394 1 0 0] 
r 1.224912496 _1_ MAC  --- 0 CTS 38 [2394 1 0 0] 
s 1.224922496 _1_ MAC  --- 30 tcp 1098 [13a 0 1 800] ------- [1:0 0:0 32 0] [19 0] 0 0
r 1.233706517 _0_ MAC  --- 30 tcp 1040 [13a 0 1 800] ------- [1:0 0:0 32 0] [19 0] 1 0
s 1.233716517 _0_ MAC  --- 0 ACK 38 [0 1 0 0] 
r 1.234020538 _1_ MAC  --- 0 ACK 38 [0 1 0 0] 
s 1.234070538 _1_ MAC  --- 0 RTS 44 [24ce 0 1 0] 
r 1.234422560 _0_ MAC  --- 0 RTS 44 [24ce 0 1 0] 
s 1.234432560 _0_ MAC  --- 0 CTS 38 [2394 1 0 0] 
r 1.234736581 _1_ MAC  --- 0 CTS 38 [2394 1 0 0] 
s 1.234746581 _1_ MAC  --- 31 tcp 1098 [13a 0 1 800] ------- [1:0 0:0 32 0] [20 0] 0 0
r 1.243530602 _0_ MAC  --- 31 tcp 1040 [13a 0 1 800] ------- [1:0 0:0 32 0] [20 0] 1 0
s 1.243540602 _0_ MAC  --- 0 ACK 38 [0 1 0 0] 
r 1.243844624 _1_ MAC  --- 0 ACK 38 [0 1 0 0] 
s 1.244134624 _1_ MAC  --- 0 RTS 44 [24ce 0 1 0] 
r 1.244486645 _0_ MAC  --- 0 RTS 44 [24ce 0 1 0] 
s 1.244496645 _0_ MAC  --- 0 CTS 38 [2394 1 0 0] 
r 1.244800667 _1_ MAC  --- 0 CTS 38 [2394 1 0 0] 
s 1.244810667 _1_ MAC  --- 32 tcp 1098 [13a 0 1 800] ------- [1:0 0:0 32 0] [21 0] 0 0
r 1.253594689 _0_ MAC  --- 32 tcp 1040 [13a 0 1 800] ------- [1:0 0:0 32 0] [21 0] 1 0
s 1.253604689 _0_ MAC  --- 0 ACK 38 [0 1 0 0] 
r 1.253908710 _1_ MAC  --- 0 ACK 38 [0 1 0 0] 
s 1.254018689 _0_ MAC  --- 0 RTS 44 [58e 1 0 0] 
r 1.254370710 _1_ MAC  --- 0 RTS 44 [58e 1 0 0] 
s 1.254380710 _1_ MAC  --- 0 CTS 38 [454 0 0 0] 
r 1.254684732 _0_ MAC  --- 0 CTS 38 [454 0 0 0] 
s 1.254694732 _0_ MAC  --- 58 ack 98 [13a 1 0 800] ------- [0:0 1:0 32 0] [19 0] 0 0
r 1.255478754 _1_ MAC  --- 58 ack 40 [13a 1 0 800] ------- [0:0 1:0 32 0] [19 0] 1 0
s 1.255488754 _1_ MAC  --- 0 ACK 38 [0 0 0 0] 
r 1.255792775 _0_ MAC  --- 0 ACK 38 [0 0 0 0] 
s 1.256082754 _1_ MAC  --- 0 RTS 44 [24ce 0 1 0] 
r 1.256434775 _0_ MAC  --- 0 RTS 44 [24ce 0 1 0] 
s 1.256444775 _0_ MAC  --- 0 CTS 38 [2394 1 0 0] 
r 1.256748797 _1_ MAC  --- 0 CTS 38 [2394 1 0 0] 
s 1.256758797 _1_ MAC  --- 33 tcp 1098 [13a 0 1 800] ------- [1:0 0:0 32 0] [22 0] 0 0
r 1.265542819 _0_ MAC  --- 33 tcp 1040 [13a 0 1 800] ------- [1:0 0:0 32 0] [22 0] 1 0
s 1.265552819 _0_ MAC  --- 0 ACK 38 [0 1 0 0] 
r 1.265856841 _1_ MAC  --- 0 ACK 38 [0 1 0 0] 
s 1.265926841 _1_ MAC  --- 0 RTS 44 [24ce 0 1 0] 
r 1.266278863 _0_ MAC  --- 0 RTS 44 [24ce 0 1 0] 
s 1.266288863 _0_ MAC  --- 0 CTS 38 [2394 1 0 0] 
r 1.266592885 _1_ MAC  --- 0 CTS 38 [2394 1 0 0] 
s 1.266602885 _1_ MAC  --- 35 tcp 1098 [13a 0 1 800] ------- [1:0 0:0 32 0] [23 0] 0 0
r 1.275386907 _0_ MAC  --- 35 tcp 1040 [13a 0 1 800] ------- [1:0 0:0 32 0] [23 0] 1 0
s 1.275396907 _0_ MAC  --- 0 ACK 38 [0 1 0 0] 
r 1.275700929 _1_ MAC  --- 0 ACK 38 [0 1 0 0] 
s 1.275770907 _0_ MAC  --- 0 RTS 44 [58e 1 0 0] 
r 1.276122929 _1_ MAC  --- 0 RTS 44 [58e 1 0 0] 
s 1.276132929 _1_ MAC  --- 0 CTS 38 [454 0 0 0] 
r 1.276436951 _0_ MAC  --- 0 CTS 38 [454 0 0 0] 
s 1.276446951 _0_ MAC  --- 59 ack 98 [13a 1 0 800] ------- [0:0 1:0 32 0] [20 0] 0 0
r 1.277230973 _1_ MAC  --- 59 ack 40 [13a 1 0 800] ------- [0:0 1:0 32 0] [20 0] 1 0
s 1.277240973 _1_ MAC  --- 0 ACK 38 [0 0 0 0] 
r 1.277544995 _0_ MAC  --- 0 ACK 38 [0 0 0 0] 
s 1.277834995 _0_ MAC  --- 0 RTS 44 [58e 1 0 0] 
r 1.278187017 _1_ MAC  --- 0 RTS 44 [58e 1 0 0] 
s 1.278197017 _1_ MAC  --- 0 CTS 38 [454 0 0 0] 
r 1.278501039 _0_ MAC  --- 0 CTS 38 [454 0 0 0] 
s 1.278511039 _0_ MAC  --- 60 ack 98 [13a 1 0 800] ------- [0:0 1:0 32 0] [21 0] 0 0
r 1.279295061 _1_ MAC  --- 60 ack 40 [13a 1 0 800] ------- [0:0 1:0 32 0] [21 0] 1 0
s 1.279305061 _1_ MAC  --- 0 ACK 38 [0 0 0 0] 
r 1.279609083 _0_ MAC  --- 0 ACK 38 [0 0 0 0] 
s 1.279779083 _0_ MAC  --- 0 RTS 44 [58e 1 0 0] 
r 1.280131105 _1_ MAC  --- 0 RTS 44 [58e 1 0 0] 
s 1.280141105 _1_ MAC  --- 0 CTS 38 [454 0 0 0] 
r 1.280445128 _0_ MAC  --- 0 CTS 38 [454 0 0 0] 
s 1.280455128 _0_ MAC  --- 62 ack 98 [13a 1 0 800] ------- [0:0 1:0 32 0] [22 0] 0 0
r 1.281239150 _1_ MAC  --- 62 ack 40 [13a 1 0 800] ------- [0:0 1:0 32 0] [22 0] 1 0
s 1.281249150 _1_ MAC  --- 0 ACK 38 [0 0 0 0] 
r 1.281553172 _0_ MAC  --- 0 ACK 38 [0 0 0 0] 
s 1.281703150 _1_ MAC  --- 0 RTS 44 [24ce 0 1 0] 
r 1.282055172 _0_ MAC  --- 0 RTS 44 [24ce 0 1 0] 
s 1.282065172 _0_ MAC  --- 0 CTS 38 [2394 1 0 0] 
r 1.282369194 _1_ MAC  --- 0 CTS 38 [2394 1 0 0] 
s 1.282379194 _1_ MAC  --- 36 tcp 1098 [13a 0 1 800] ------- [1:0 0:0 32 0] [24 0] 0 0
r 1.291163216 _0_ MAC  --- 36 tcp 1040 [13a 0 1 800] ------- [1:0 0:0 32 0] [24 0] 1 0
s 1.291173216 _0_ MAC  --- 0 ACK 38 [0 1 0 0] 
r 1.291477239 _1_ MAC  --- 0 ACK 38 [0 1 0 0] 
s 1.291567239 _1_ MAC  --- 0 RTS 44 [24ce 0 1 0] 
r 1.291919261 _0_ MAC  --- 0 RTS 44 [24ce 0 1 0] 
s 1.291929261 _0_ MAC  --- 0 CTS 38 [2394 1 0 0] 
r 1.292233283 _1_ MAC  --- 0 CTS 38 [2394 1 0 0] 
s 1.292243283 _1_ MAC  --- 38 tcp 1098 [13a 0 1 800] ------- [1:0 0:0 32 0] [25 0] 0 0
r 1.301027306 _0_ MAC  --- 38 tcp 1040 [13a 0 1 800] ------- [1:0 0:0 32 0] [25 0] 1 0
s 1.301037306 _0_ MAC  --- 0 ACK 38 [0 1 0 0] 
r 1.301341328 _1_ MAC  --- 0 ACK 38 [0 1 0 0] 
s 1.301551306 _0_ MAC  --- 0 RTS 44 [58e 1 0 0] 
r 1.301903328 _1_ MAC  --- 0 RTS 44 [58e 1 0 0] 
s 1.301913328 _1_ MAC  --- 0 CTS 38 [454 0 0 0] 
r 1.302217351 _0_ MAC  --- 0 CTS 38 [454 0 0 0] 
s 1.302227351 _0_ MAC  --- 63 ack 98 [13a 1 0 800] ------- [0:0 1:0 32 0] [23 0] 0 0
r 1.303011373 _1_ MAC  --- 63 ack 40 [13a 1 0 800] ------- [0:0 1:0 32 0] [23 0] 1 0
s 1.303021373 _1_ MAC  --- 0 ACK 38 [0 0 0 0] 
r 1.303325396 _0_ MAC  --- 0 ACK 38 [0 0 0 0] 
s 1.303495396 _0_ MAC  --- 0 RTS 44 [58e 1 0 0] 
r 1.303847418 _1_ MAC  --- 0 RTS 44 [58e 1 0 0] 
s 1.303857418 _1_ MAC  --- 0 CTS 38 [454 0 0 0] 
r 1.304161441 _0_ MAC  --- 0 CTS 38 [454 0 0 0] 
s 1.304171441 _0_ MAC  --- 67 ack 98 [13a 1 0 800] ------- [0:0 1:0 32 0] [24 0] 0 0
r 1.304955464 _1_ MAC  --- 67 ack 40 [13a 1 0 800] ------- [0:0 1:0 32 0] [24 0] 1 0
s 1.304965464 _1_ MAC  --- 0 ACK 38 [0 0 0 0] 
r 1.305269486 _0_ MAC  --- 0 ACK 38 [0 0 0 0] 
s 1.305499464 _1_ MAC  --- 0 RTS 44 [24ce 0 1 0] 
r 1.305851486 _0_ MAC  --- 0 RTS 44 [24ce 0 1 0] 
s 1.305861486 _0_ MAC  --- 0 CTS 38 [2394 1 0 0] 
r 1.306165509 _1_ MAC  --- 0 CTS 38 [2394 1 0 0] 
s 1.306175509 _1_ MAC  --- 39 tcp 1098 [13a 0 1 800] ------- [1:0 0:0 32 0] [26 0] 0 0
r 1.314959531 _0_ MAC  --- 39 tcp 1040 [13a 0 1 800] ------- [1:0 0:0 32 0] [26 0] 1 0
s 1.314969531 _0_ MAC  --- 0 ACK 38 [0 1 0 0] 
r 1.315273554 _1_ MAC  --- 0 ACK 38 [0 1 0 0] 
s 1.315343531 _0_ MAC  --- 0 RTS 44 [58e 1 0 0] 
r 1.315695554 _1_ MAC  --- 0 RTS 44 [58e 1 0 0] 
s 1.315705554 _1_ MAC  --- 0 CTS 38 [454 0 0 0] 
r 1.316009577 _0_ MAC  --- 0 CTS 38 [454 0 0 0] 
s 1.316019577 _0_ MAC  --- 68 ack 98 [13a 1 0 800] ------- [0:0 1:0 32 0] [25 0] 0 0
r 1.316803600 _1_ MAC  --- 68 ack 40 [13a 1 0 800] ------- [0:0 1:0 32 0] [25 0] 1 0
s 1.316813600 _1_ MAC  --- 0 ACK 38 [0 0 0 0] 
r 1.317117622 _0_ MAC  --- 0 ACK 38 [0 0 0 0] 
s 1.317247600 _1_ MAC  --- 0 RTS 44 [24ce 0 1 0] 
s 1.317247622 _0_ MAC  --- 0 RTS 44 [58e 1 0 0] 
s 1.318093645 _1_ MAC  --- 0 RTS 44 [24ce 0 1 0] 
r 1.318445668 _0_ MAC  --- 0 RTS 44 [24ce 0 1 0] 
s 1.318455668 _0_ MAC  --- 0 CTS 38 [2394 1 0 0] 
r 1.318759691 _1_ MAC  --- 0 CTS 38 [2394 1 0 0] 
s 1.318769691 _1_ MAC  --- 41 tcp 1098 [13a 0 1 800] ------- [1:0 0:0 32 0] [27 0] 0 0
r 1.327553714 _0_ MAC  --- 41 tcp 1040 [13a 0 1 800] ------- [1:0 0:0 32 0] [27 0] 1 0
s 1.327563714 _0_ MAC  --- 0 ACK 38 [0 1 0 0] 
r 1.327867737 _1_ MAC  --- 0 ACK 38 [0 1 0 0] 
s 1.327977737 _1_ MAC  --- 0 RTS 44 [24ce 0 1 0] 
r 1.328329760 _0_ MAC  --- 0 RTS 44 [24ce 0 1 0] 
s 1.328339760 _0_ MAC  --- 0 CTS 38 [2394 1 0 0] 
r 1.328643783 _1_ MAC  --- 0 CTS 38 [2394 1 0 0] 
s 1.328653783 _1_ MAC  --- 42 tcp 1098 [13a 0 1 800] ------- [1:0 0:0 32 0] [28 0] 0 0
r 1.337437806 _0_ MAC  --- 42 tcp 1040 [13a 0 1 800] ------- [1:0 0:0 32 0] [28 0] 1 0
s 1.337447806 _0_ MAC  --- 0 ACK 38 [0 1 0 0] 
r 1.337751829 _1_ MAC  --- 0 ACK 38 [0 1 0 0] 
s 1.338021806 _0_ MAC  --- 0 RTS 44 [58e 1 0 0] 
r 1.338373829 _1_ MAC  --- 0 RTS 44 [58e 1 0 0] 
s 1.338383829 _1_ MAC  --- 0 CTS 38 [454 0 0 0] 
r 1.338687852 _0_ MAC  --- 0 CTS 38 [454 0 0 0] 
s 1.338697852 _0_ MAC  --- 71 ack 98 [13a 1 0 800] ------- [0:0 1:0 32 0] [26 0] 0 0
r 1.339481875 _1_ MAC  --- 71 ack 40 [13a 1 0 800] ------- [0:0 1:0 32 0] [26 0] 1 0
s 1.339491875 _1_ MAC  --- 0 ACK 38 [0 0 0 0] 
r 1.339795898 _0_ MAC  --- 0 ACK 38 [0 0 0 0] 
s 1.339965875 _1_ MAC  --- 0 RTS 44 [24ce 0 1 0] 
r 1.340317898 _0_ MAC  --- 0 RTS 44 [24ce 0 1 0] 
s 1.340327898 _0_ MAC  --- 0 CTS 38 [2394 1 0 0] 
r 1.340631921 _1_ MAC  --- 0 CTS 38 [2394 1 0 0] 
s 1.340641921 _1_ MAC  --- 44 tcp 1098 [13a 0 1 800] ------- [1:0 0:0 32 0] [29 0] 0 0
r 1.349425945 _0_ MAC  --- 44 tcp 1040 [13a 0 1 800] ------- [1:0 0:0 32 0] [29 0] 1 0
s 1.349435945 _0_ MAC  --- 0 ACK 38 [0 1 0 0] 
r 1.349739968 _1_ MAC  --- 0 ACK 38 [0 1 0 0] 
s 1.349909968 _1_ MAC  --- 0 RTS 44 [24ce 0 1 0] 
r 1.350261991 _0_ MAC  --- 0 RTS 44 [24ce 0 1 0] 
s 1.350271991 _0_ MAC  --- 0 CTS 38 [2394 1 0 0] 
r 1.350576015 _1_ MAC  --- 0 CTS 38 [2394 1 0 0] 
s 1.350586015 _1_ MAC  --- 45 tcp 1098 [13a 0 1 800] ------- [1:0 0:0 32 0] [30 0] 0 0
r 1.359370038 _0_ MAC  --- 45 tcp 1040 [13a 0 1 800] ------- [1:0 0:0 32 0] [30 0] 1 0
s 1.359380038 _0_ MAC  --- 0 ACK 38 [0 1 0 0] 
r 1.359684062 _1_ MAC  --- 0 ACK 38 [0 1 0 0] 
s 1.359794062 _1_ MAC  --- 0 RTS 44 [24ce 0 1 0] 
r 1.360146085 _0_ MAC  --- 0 RTS 44 [24ce 0 1 0] 
s 1.360156085 _0_ MAC  --- 0 CTS 38 [2394 1 0 0] 
r 1.360460109 _1_ MAC  --- 0 CTS 38 [2394 1 0 0] 
s 1.360470109 _1_ MAC  --- 48 tcp 1098 [13a 0 1 800] ------- [1:0 0:0 32 0] [31 0] 0 0
r 1.369254132 _0_ MAC  --- 48 tcp 1040 [13a 0 1 800] ------- [1:0 0:0 32 0] [31 0] 1 0
s 1.369264132 _0_ MAC  --- 0 ACK 38 [0 1 0 0] 
r 1.369568156 _1_ MAC  --- 0 ACK 38 [0 1 0 0] 
s 1.369918132 _0_ MAC  --- 0 RTS 44 [58e 1 0 0] 
r 1.370270156 _1_ MAC  --- 0 RTS 44 [58e 1 0 0] 
s 1.370280156 _1_ MAC  --- 0 CTS 38 [454 0 0 0] 
r 1.370584180 _0_ MAC  --- 0 CTS 38 [454 0 0 0] 
s 1.370594180 _0_ MAC  --- 73 ack 98 [13a 1 0 800] ------- [0:0 1:0 32 0] [27 0] 0 0
r 1.371378203 _1_ MAC  --- 73 ack 40 [13a 1 0 800] ------- [0:0 1:0 32 0] [27 0] 1 0
s 1.371388203 _1_ MAC  --- 0 ACK 38 [0 0 0 0] 
r 1.371692227 _0_ MAC  --- 0 ACK 38 [0 0 0 0] 
s 1.371862227 _0_ MAC  --- 0 RTS 44 [58e 1 0 0] 
r 1.372214251 _1_ MAC  --- 0 RTS 44 [58e 1 0 0] 
s 1.372224251 _1_ MAC  --- 0 CTS 38 [454 0 0 0] 
r 1.372528274 _0_ MAC  --- 0 CTS 38 [454 0 0 0] 
s 1.372538274 _0_ MAC  --- 74 ack 98 [13a 1 0 800] ------- [0:0 1:0 32 0] [28 0] 0 0
r 1.373322298 _1_ MAC  --- 74 ack 40 [13a 1 0 800] ------- [0:0 1:0 32 0] [28 0] 1 0
s 1.373332298 _1_ MAC  --- 0 ACK 38 [0 0 0 0] 
r 1.373636322 _0_ MAC  --- 0 ACK 38 [0 0 0 0] 
s 1.373846298 _1_ MAC  --- 0 RTS 44 [24ce 0 1 0] 
r 1.374198322 _0_ MAC  --- 0 RTS 44 [24ce 0 1 0] 