s 0.500355000 _2_ MAC  --- 0 ARP 86 [0 ffffffff 2 806] ------- [REQUEST 2/2 0/1]
r 0.501043283 _1_ MAC  --- 0 ARP 28 [0 ffffffff 2 806] ------- [REQUEST 2/2 0/1]
r 0.501043583 _0_ MAC  --- 0 ARP 28 [0 ffffffff 2 806] ------- [REQUEST 2/2 0/1]
s 0.501098283 _1_ MAC  --- 0 RTS 44 [52e 2 1 0] 
r 0.501450567 _2_ MAC  --- 0 RTS 44 [52e 2 1 0] 
s 0.501460567 _2_ MAC  --- 0 CTS 38 [3f4 1 0 0] 
r 0.501764850 _1_ MAC  --- 0 CTS 38 [3f4 1 0 0] 
s 0.501774850 _1_ MAC  --- 0 ARP 86 [13a 2 1 806] ------- [REPLY 1/1 2/2]
r 0.502463133 _2_ MAC  --- 0 ARP 28 [13a 2 1 806] ------- [REPLY 1/1 2/2]
s 0.502473133 _2_ MAC  --- 0 ACK 38 [0 1 0 0] 
r 0.502777417 _1_ MAC  --- 0 ACK 38 [0 1 0 0] 
s 0.503087717 _0_ MAC  --- 0 ARP 86 [0 ffffffff 0 806] ------- [REQUEST 0/0 0/1]
r 0.503776017 _1_ MAC  --- 0 ARP 28 [0 ffffffff 0 806] ------- [REQUEST 0/0 0/1]
r 0.503776300 _2_ MAC  --- 0 ARP 28 [0 ffffffff 0 806] ------- [REQUEST 0/0 0/1]
s 0.503886300 _2_ MAC  --- 0 RTS 44 [58e 1 2 0] 
r 0.504238583 _1_ MAC  --- 0 RTS 44 [58e 1 2 0] 
s 0.504248583 _1_ MAC  --- 0 CTS 38 [454 2 0 0] 
r 0.504552867 _2_ MAC  --- 0 CTS 38 [454 2 0 0] 
s 0.504562867 _2_ MAC  --- 1 tcp 98 [13a 1 2 800] ------- [2:0 1:1 32 0] [0 0] 0 0
r 0.505347150 _1_ MAC  --- 1 tcp 40 [13a 1 2 800] ------- [2:0 1:1 32 0] [0 0] 1 0
s 0.505357150 _1_ MAC  --- 0 ACK 38 [0 2 0 0] 
r 0.505661433 _2_ MAC  --- 0 ACK 38 [0 2 0 0] 
s 0.505911150 _1_ MAC  --- 0 RTS 44 [52e 0 1 0] 
r 0.506263450 _0_ MAC  --- 0 RTS 44 [52e 0 1 0] 
s 0.506273450 _0_ MAC  --- 0 CTS 38 [3f4 1 0 0] 
r 0.506577750 _1_ MAC  --- 0 CTS 38 [3f4 1 0 0] 
s 0.506587750 _1_ MAC  --- 0 ARP 86 [13a 0 1 806] ------- [REPLY 1/1 0/0]
r 0.507276050 _0_ MAC  --- 0 ARP 28 [13a 0 1 806] ------- [REPLY 1/1 0/0]
s 0.507286050 _0_ MAC  --- 0 ACK 38 [0 1 0 0] 
r 0.507590350 _1_ MAC  --- 0 ACK 38 [0 1 0 0] 
s 0.507880350 _1_ MAC  --- 0 RTS 44 [58e 2 1 0] 
r 0.508232633 _2_ MAC  --- 0 RTS 44 [58e 2 1 0] 
s 0.508242633 _2_ MAC  --- 0 CTS 38 [454 1 0 0] 
r 0.508546917 _1_ MAC  --- 0 CTS 38 [454 1 0 0] 
s 0.508556917 _1_ MAC  --- 2 ack 98 [13a 2 1 800] ------- [1:1 2:0 32 0] [0 0] 0 0
r 0.509341200 _2_ MAC  --- 2 ack 40 [13a 2 1 800] ------- [1:1 2:0 32 0] [0 0] 1 0
s 0.509351200 _2_ MAC  --- 0 ACK 38 [0 1 0 0] 
r 0.509655483 _1_ MAC  --- 0 ACK 38 [0 1 0 0] 
s 0.509725783 _0_ MAC  --- 0 RTS 44 [58e 1 0 0] 
r 0.510078083 _1_ MAC  --- 0 RTS 44 [58e 1 0 0] 
s 0.510088083 _1_ MAC  --- 0 CTS 38 [454 0 0 0] 
r 0.510392383 _0_ MAC  --- 0 CTS 38 [454 0 0 0] 
s 0.510402383 _0_ MAC  --- 0 tcp 98 [13a 1 0 800] ------- [0:0 1:0 32 0] [0 0] 0 0
r 0.511186683 _1_ MAC  --- 0 tcp 40 [13a 1 0 800] ------- [0:0 1:0 32 0] [0 0] 1 0
s 0.511196683 _1_ MAC  --- 0 ACK 38 [0 0 0 0] 
r 0.511500983 _0_ MAC  --- 0 ACK 38 [0 0 0 0] 
s 0.511570967 _2_ MAC  --- 0 RTS 44 [24ce 1 2 0] 
r 0.511923250 _1_ MAC  --- 0 RTS 44 [24ce 1 2 0] 
s 0.511933250 _1_ MAC  --- 0 CTS 38 [2394 2 0 0] 
r 0.512237533 _2_ MAC  --- 0 CTS 38 [2394 2 0 0] 
s 0.512247533 _2_ MAC  --- 3 tcp 1098 [13a 1 2 800] ------- [2:0 1:1 32 0] [1 0] 0 0
r 0.521031817 _1_ MAC  --- 3 tcp 1040 [13a 1 2 800] ------- [2:0 1:1 32 0] [1 0] 1 0
s 0.521041817 _1_ MAC  --- 0 ACK 38 [0 2 0 0] 
r 0.521346100 _2_ MAC  --- 0 ACK 38 [0 2 0 0] 
s 0.521756100 _2_ MAC  --- 0 RTS 44 [24ce 1 2 0] 
r 0.522108383 _1_ MAC  --- 0 RTS 44 [24ce 1 2 0] 
s 0.522118383 _1_ MAC  --- 0 CTS 38 [2394 2 0 0] 
r 0.522422667 _2_ MAC  --- 0 CTS 38 [2394 2 0 0] 
s 0.522432667 _2_ MAC  --- 4 tcp 1098 [13a 1 2 800] ------- [2:0 1:1 32 0] [2 0] 0 0
r 0.531216950 _1_ MAC  --- 4 tcp 1040 [13a 1 2 800] ------- [2:0 1:1 32 0] [2 0] 1 0
s 0.531226950 _1_ MAC  --- 0 ACK 38 [0 2 0 0] 
r 0.531531233 _2_ MAC  --- 0 ACK 38 [0 2 0 0] 
s 0.531720950 _1_ MAC  --- 0 RTS 44 [58e 0 1 0] 
r 0.532073250 _0_ MAC  --- 0 RTS 44 [58e 0 1 0] 
s 0.532083250 _0_ MAC  --- 0 CTS 38 [454 1 0 0] 
r 0.532387550 _1_ MAC  --- 0 CTS 38 [454 1 0 0] 
s 0.532397550 _1_ MAC  --- 5 ack 98 [13a 0 1 800] ------- [1:0 0:0 32 0] [0 0] 0 0
r 0.533181850 _0_ MAC  --- 5 ack 40 [13a 0 1 800] ------- [1:0 0:0 32 0] [0 0] 1 0
s 0.533191850 _0_ MAC  --- 0 ACK 38 [0 1 0 0] 
r 0.533496150 _1_ MAC  --- 0 ACK 38 [0 1 0 0] 
s 0.533705850 _0_ MAC  --- 0 RTS 44 [24ce 1 0 0] 
r 0.534058150 _1_ MAC  --- 0 RTS 44 [24ce 1 0 0] 
s 0.534068150 _1_ MAC  --- 0 CTS 38 [2394 0 0 0] 
r 0.534372450 _0_ MAC  --- 0 CTS 38 [2394 0 0 0] 
s 0.534382450 _0_ MAC  --- 8 tcp 1098 [13a 1 0 800] ------- [0:0 1:0 32 0] [1 0] 0 0
r 0.543166750 _1_ MAC  --- 8 tcp 1040 [13a 1 0 800] ------- [0:0 1:0 32 0] [1 0] 1 0
s 0.543176750 _1_ MAC  --- 0 ACK 38 [0 0 0 0] 
r 0.543481050 _0_ MAC  --- 0 ACK 38 [0 0 0 0] 
s 0.543850750 _1_ MAC  --- 0 RTS 44 [58e 2 1 0] 
r 0.544203033 _2_ MAC  --- 0 RTS 44 [58e 2 1 0] 
s 0.544213033 _2_ MAC  --- 0 CTS 38 [454 1 0 0] 
r 0.544517317 _1_ MAC  --- 0 CTS 38 [454 1 0 0] 
s 0.544527317 _1_ MAC  --- 6 ack 98 [13a 2 1 800] ------- [1:1 2:0 32 0] [1 0] 0 0
r 0.545311600 _2_ MAC  --- 6 ack 40 [13a 2 1 800] ------- [1:1 2:0 32 0] [1 0] 1 0
s 0.545321600 _2_ MAC  --- 0 ACK 38 [0 1 0 0] 
r 0.545625883 _1_ MAC  --- 0 ACK 38 [0 1 0 0] 
s 0.545716183 _0_ MAC  --- 0 RTS 44 [24ce 1 0 0] 
r 0.546068483 _1_ MAC  --- 0 RTS 44 [24ce 1 0 0] 
s 0.546078483 _1_ MAC  --- 0 CTS 38 [2394 0 0 0] 
r 0.546382783 _0_ MAC  --- 0 CTS 38 [2394 0 0 0] 
s 0.546392783 _0_ MAC  --- 9 tcp 1098 [13a 1 0 800] ------- [0:0 1:0 32 0] [2 0] 0 0
r 0.555177083 _1_ MAC  --- 9 tcp 1040 [13a 1 0 800] ------- [0:0 1:0 32 0] [2 0] 1 0
s 0.555187083 _1_ MAC  --- 0 ACK 38 [0 0 0 0] 
r 0.555491383 _0_ MAC  --- 0 ACK 38 [0 0 0 0] 
s 0.555701083 _1_ MAC  --- 0 RTS 44 [58e 2 1 0] 
r 0.556053367 _2_ MAC  --- 0 RTS 44 [58e 2 1 0] 
s 0.556063367 _2_ MAC  --- 0 CTS 38 [454 1 0 0] 
r 0.556367650 _1_ MAC  --- 0 CTS 38 [454 1 0 0] 
s 0.556377650 _1_ MAC  --- 7 ack 98 [13a 2 1 800] ------- [1:1 2:0 32 0] [2 0] 0 0
r 0.557161933 _2_ MAC  --- 7 ack 40 [13a 2 1 800] ------- [1:1 2:0 32 0] [2 0] 1 0
s 0.557171933 _2_ MAC  --- 0 ACK 38 [0 1 0 0] 
r 0.557476217 _1_ MAC  --- 0 ACK 38 [0 1 0 0] 
s 0.557546217 _1_ MAC  --- 0 RTS 44 [58e 0 1 0] 
r 0.557898517 _0_ MAC  --- 0 RTS 44 [58e 0 1 0] 
s 0.557908517 _0_ MAC  --- 0 CTS 38 [454 1 0 0] 
r 0.558212817 _1_ MAC  --- 0 CTS 38 [454 1 0 0] 
s 0.558222817 _1_ MAC  --- 10 ack 98 [13a 0 1 800] ------- [1:0 0:0 32 0] [1 0] 0 0
r 0.559007117 _0_ MAC  --- 10 ack 40 [13a 0 1 800] ------- [1:0 0:0 32 0] [1 0] 1 0
s 0.559017117 _0_ MAC  --- 0 ACK 38 [0 1 0 0] 
r 0.559321417 _1_ MAC  --- 0 ACK 38 [0 1 0 0] 
s 0.559411117 _0_ MAC  --- 0 RTS 44 [24ce 1 0 0] 
r 0.559763417 _1_ MAC  --- 0 RTS 44 [24ce 1 0 0] 
s 0.559773417 _1_ MAC  --- 0 CTS 38 [2394 0 0 0] 
r 0.560077717 _0_ MAC  --- 0 CTS 38 [2394 0 0 0] 
s 0.560087717 _0_ MAC  --- 16 tcp 1098 [13a 1 0 800] ------- [0:0 1:0 32 0] [3 0] 0 0
r 0.568872017 _1_ MAC  --- 16 tcp 1040 [13a 1 0 800] ------- [0:0 1:0 32 0] [3 0] 1 0
s 0.568882017 _1_ MAC  --- 0 ACK 38 [0 0 0 0] 
r 0.569186317 _0_ MAC  --- 0 ACK 38 [0 0 0 0] 
s 0.569316300 _2_ MAC  --- 0 RTS 44 [24ce 1 2 0] 
r 0.569668583 _1_ MAC  --- 0 RTS 44 [24ce 1 2 0] 
s 0.569678583 _1_ MAC  --- 0 CTS 38 [2394 2 0 0] 
r 0.569982867 _2_ MAC  --- 0 CTS 38 [2394 2 0 0] 
s 0.569992867 _2_ MAC  --- 11 tcp 1098 [13a 1 2 800] ------- [2:0 1:1 32 0] [3 0] 0 0
r 0.578777150 _1_ MAC  --- 11 tcp 1040 [13a 1 2 800] ------- [2:0 1:1 32 0] [3 0] 1 0
s 0.578787150 _1_ MAC  --- 0 ACK 38 [0 2 0 0] 
r 0.579091433 _2_ MAC  --- 0 ACK 38 [0 2 0 0] 
s 0.579261150 _1_ MAC  --- 0 RTS 44 [58e 0 1 0] 
r 0.579613450 _0_ MAC  --- 0 RTS 44 [58e 0 1 0] 
s 0.579623450 _0_ MAC  --- 0 CTS 38 [454 1 0 0] 
r 0.579927750 _1_ MAC  --- 0 CTS 38 [454 1 0 0] 
s 0.579937750 _1_ MAC  --- 13 ack 98 [13a 0 1 800] ------- [1:0 0:0 32 0] [2 0] 0 0
r 0.580722050 _0_ MAC  --- 13 ack 40 [13a 0 1 800] ------- [1:0 0:0 32 0] [2 0] 1 0
s 0.580732050 _0_ MAC  --- 0 ACK 38 [0 1 0 0] 
r 0.581036350 _1_ MAC  --- 0 ACK 38 [0 1 0 0] 
s 0.581146633 _2_ MAC  --- 0 RTS 44 [24ce 1 2 0] 
r 0.581498917 _1_ MAC  --- 0 RTS 44 [24ce 1 2 0] 
s 0.581508917 _1_ MAC  --- 0 CTS 38 [2394 2 0 0] 
r 0.581813200 _2_ MAC  --- 0 CTS 38 [2394 2 0 0] 
s 0.581823200 _2_ MAC  --- 12 tcp 1098 [13a 1 2 800] ------- [2:0 1:1 32 0] [4 0] 0 0
r 0.590607483 _1_ MAC  --- 12 tcp 1040 [13a 1 2 800] ------- [2:0 1:1 32 0] [4 0] 1 0
s 0.590617483 _1_ MAC  --- 0 ACK 38 [0 2 0 0] 
r 0.590921767 _2_ MAC  --- 0 ACK 38 [0 2 0 0] 
s 0.591171783 _0_ MAC  --- 0 RTS 44 [24ce 1 0 0] 
r 0.591524083 _1_ MAC  --- 0 RTS 44 [24ce 1 0 0] 
s 0.591534083 _1_ MAC  --- 0 CTS 38 [2394 0 0 0] 
r 0.591838383 _0_ MAC  --- 0 CTS 38 [2394 0 0 0] 
s 0.591848383 _0_ MAC  --- 17 tcp 1098 [13a 1 0 800] ------- [0:0 1:0 32 0] [4 0] 0 0
r 0.600632683 _1_ MAC  --- 17 tcp 1040 [13a 1 0 800] ------- [0:0 1:0 32 0] [4 0] 1 0
s 0.600642683 _1_ MAC  --- 0 ACK 38 [0 0 0 0] 
r 0.600946983 _0_ MAC  --- 0 ACK 38 [0 0 0 0] 
s 0.601196967 _2_ MAC  --- 0 RTS 44 [24ce 1 2 0] 
r 0.601549250 _1_ MAC  --- 0 RTS 44 [24ce 1 2 0] 
s 0.601559250 _1_ MAC  --- 0 CTS 38 [2394 2 0 0] 
r 0.601863533 _2_ MAC  --- 0 CTS 38 [2394 2 0 0] 
s 0.601873533 _2_ MAC  --- 14 tcp 1098 [13a 1 2 800] ------- [2:0 1:1 32 0] [5 0] 0 0
r 0.610657817 _1_ MAC  --- 14 tcp 1040 [13a 1 2 800] ------- [2:0 1:1 32 0] [5 0] 1 0
s 0.610667817 _1_ MAC  --- 0 ACK 38 [0 2 0 0] 
r 0.610972100 _2_ MAC  --- 0 ACK 38 [0 2 0 0] 
s 0.611141817 _1_ MAC  --- 0 RTS 44 [58e 0 1 0] 
r 0.611494117 _0_ MAC  --- 0 RTS 44 [58e 0 1 0] 
s 0.611504117 _0_ MAC  --- 0 CTS 38 [454 1 0 0] 
r 0.611808417 _1_ MAC  --- 0 CTS 38 [454 1 0 0] 
s 0.611818417 _1_ MAC  --- 18 ack 98 [13a 0 1 800] ------- [1:0 0:0 32 0] [3 0] 0 0
r 0.612602717 _0_ MAC  --- 18 ack 40 [13a 0 1 800] ------- [1:0 0:0 32 0] [3 0] 1 0
s 0.612612717 _0_ MAC  --- 0 ACK 38 [0 1 0 0] 
r 0.612917017 _1_ MAC  --- 0 ACK 38 [0 1 0 0] 
s 0.613007017 _1_ MAC  --- 0 RTS 44 [58e 2 1 0] 
r 0.613359300 _2_ MAC  --- 0 RTS 44 [58e 2 1 0] 
s 0.613369300 _2_ MAC  --- 0 CTS 38 [454 1 0 0] 
r 0.613673583 _1_ MAC  --- 0 CTS 38 [454 1 0 0] 
s 0.613683583 _1_ MAC  --- 19 ack 98 [13a 2 1 800] ------- [1:1 2:0 32 0] [3 0] 0 0
r 0.614467867 _2_ MAC  --- 19 ack 40 [13a 2 1 800] ------- [1:1 2:0 32 0] [3 0] 1 0
s 0.614477867 _2_ MAC  --- 0 ACK 38 [0 1 0 0] 
r 0.614782150 _1_ MAC  --- 0 ACK 38 [0 1 0 0] 
s 0.615031867 _2_ MAC  --- 0 RTS 44 [24ce 1 2 0] 
s 0.615032450 _0_ MAC  --- 0 RTS 44 [24ce 1 0 0] 
D 0.615032750 _1_ MAC  COL 0 RTS 44 [24ce 1 2 0] 
D 0.615384750 _1_ MAC  COL 0 RTS 44 [24ce 1 0 0] 
s 0.615918750 _1_ MAC  --- 0 RTS 44 [58e 2 1 0] 
r 0.616271033 _2_ MAC  --- 0 RTS 44 [58e 2 1 0] 
s 0.616281033 _2_ MAC  --- 0 CTS 38 [454 1 0 0] 
r 0.616585317 _1_ MAC  --- 0 CTS 38 [454 1 0 0] 
s 0.616595317 _1_ MAC  --- 22 ack 98 [13a 2 1 800] ------- [1:1 2:0 32 0] [4 0] 0 0
r 0.617379600 _2_ MAC  --- 22 ack 40 [13a 2 1 800] ------- [1:1 2:0 32 0] [4 0] 1 0
s 0.617389600 _2_ MAC  --- 0 ACK 38 [0 1 0 0] 
r 0.617693883 _1_ MAC  --- 0 ACK 38 [0 1 0 0] 
s 0.617823883 _1_ MAC  --- 0 RTS 44 [58e 0 1 0] 
r 0.618176183 _0_ MAC  --- 0 RTS 44 [58e 0 1 0] 
s 0.618186183 _0_ MAC  --- 0 CTS 38 [454 1 0 0] 
r 0.618490483 _1_ MAC  --- 0 CTS 38 [454 1 0 0] 
s 0.618500483 _1_ MAC  --- 23 ack 98 [13a 0 1 800] ------- [1:0 0:0 32 0] [4 0] 0 0
r 0.619284783 _0_ MAC  --- 23 ack 40 [13a 0 1 800] ------- [1:0 0:0 32 0] [4 0] 1 0
s 0.619294783 _0_ MAC  --- 0 ACK 38 [0 1 0 0] 
r 0.619599083 _1_ MAC  --- 0 ACK 38 [0 1 0 0] 
s 0.619768783 _0_ MAC  --- 0 RTS 44 [24ce 1 0 0] 
r 0.620121083 _1_ MAC  --- 0 RTS 44 [24ce 1 0 0] 
s 0.620131083 _1_ MAC  --- 0 CTS 38 [2394 0 0 0] 
r 0.620435383 _0_ MAC  --- 0 CTS 38 [2394 0 0 0] 
s 0.620445383 _0_ MAC  --- 20 tcp 1098 [13a 1 0 800] ------- [0:0 1:0 32 0] [5 0] 0 0
r 0.629229683 _1_ MAC  --- 20 tcp 1040 [13a 1 0 800] ------- [0:0 1:0 32 0] [5 0] 1 0
s 0.629239683 _1_ MAC  --- 0 ACK 38 [0 0 0 0] 
r 0.629543983 _0_ MAC  --- 0 ACK 38 [0 0 0 0] 
s 0.629753683 _1_ MAC  --- 0 RTS 44 [58e 2 1 0] 
r 0.630105967 _2_ MAC  --- 0 RTS 44 [58e 2 1 0] 
s 0.630115967 _2_ MAC  --- 0 CTS 38 [454 1 0 0] 
r 0.630420250 _1_ MAC  --- 0 CTS 38 [454 1 0 0] 
s 0.630430250 _1_ MAC  --- 24 ack 98 [13a 2 1 800] ------- [1:1 2:0 32 0] [5 0] 0 0
r 0.631214533 _2_ MAC  --- 24 ack 40 [13a 2 1 800] ------- [1:1 2:0 32 0] [5 0] 1 0
s 0.631224533 _2_ MAC  --- 0 ACK 38 [0 1 0 0] 
r 0.631528817 _1_ MAC  --- 0 ACK 38 [0 1 0 0] 
s 0.631619117 _0_ MAC  --- 0 RTS 44 [24ce 1 0 0] 
r 0.631971417 _1_ MAC  --- 0 RTS 44 [24ce 1 0 0] 
s 0.631981417 _1_ MAC  --- 0 CTS 38 [2394 0 0 0] 
r 0.632285717 _0_ MAC  --- 0 CTS 38 [2394 0 0 0] 
s 0.632295717 _0_ MAC  --- 21 tcp 1098 [13a 1 0 800] ------- [0:0 1:0 32 0] [6 0] 0 0
r 0.641080017 _1_ MAC  --- 21 tcp 1040 [13a 1 0 800] ------- [0:0 1:0 32 0] [6 0] 1 0
s 0.641090017 _1_ MAC  --- 0 ACK 38 [0 0 0 0] 
r 0.641394317 _0_ MAC  --- 0 ACK 38 [0 0 0 0] 
s 0.641504017 _1_ MAC  --- 0 RTS 44 [58e 0 1 0] 
r 0.641856317 _0_ MAC  --- 0 RTS 44 [58e 0 1 0] 
s 0.641866317 _0_ MAC  --- 0 CTS 38 [454 1 0 0] 
r 0.642170617 _1_ MAC  --- 0 CTS 38 [454 1 0 0] 
s 0.642180617 _1_ MAC  --- 33 ack 98 [13a 0 1 800] ------- [1:0 0:0 32 0] [5 0] 0 0
r 0.642964917 _0_ MAC  --- 33 ack 40 [13a 0 1 800] ------- [1:0 0:0 32 0] [5 0] 1 0
s 0.642974917 _0_ MAC  --- 0 ACK 38 [0 1 0 0] 
r 0.643279217 _1_ MAC  --- 0 ACK 38 [0 1 0 0] 
s 0.643489500 _2_ MAC  --- 0 RTS 44 [24ce 1 2 0] 
r 0.643841783 _1_ MAC  --- 0 RTS 44 [24ce 1 2 0] 
s 0.643851783 _1_ MAC  --- 0 CTS 38 [2394 2 0 0] 
r 0.644156067 _2_ MAC  --- 0 CTS 38 [2394 2 0 0] 
s 0.644166067 _2_ MAC  --- 15 tcp 1098 [13a 1 2 800] ------- [2:0 1:1 32 0] [6 0] 0 0
r 0.652950350 _1_ MAC  --- 15 tcp 1040 [13a 1 2 800] ------- [2:0 1:1 32 0] [6 0] 1 0
s 0.652960350 _1_ MAC  --- 0 ACK 38 [0 2 0 0] 
r 0.653264633 _2_ MAC  --- 0 ACK 38 [0 2 0 0] 
s 0.653374350 _1_ MAC  --- 0 RTS 44 [58e 0 1 0] 
r 0.653726650 _0_ MAC  --- 0 RTS 44 [58e 0 1 0] 
s 0.653736650 _0_ MAC  --- 0 CTS 38 [454 1 0 0] 
r 0.654040950 _1_ MAC  --- 0 CTS 38 [454 1 0 0] 
s 0.654050950 _1_ MAC  --- 36 ack 98 [13a 0 1 800] ------- [1:0 0:0 32 0] [6 0] 0 0
r 0.654835250 _0_ MAC  --- 36 ack 40 [13a 0 1 800] ------- [1:0 0:0 32 0] [6 0] 1 0
s 0.654845250 _0_ MAC  --- 0 ACK 38 [0 1 0 0] 
r 0.655149550 _1_ MAC  --- 0 ACK 38 [0 1 0 0] 
s 0.655339833 _2_ MAC  --- 0 RTS 44 [24ce 1 2 0] 
r 0.655692117 _1_ MAC  --- 0 RTS 44 [24ce 1 2 0] 
s 0.655702117 _1_ MAC  --- 0 CTS 38 [2394 2 0 0] 
r 0.656006400 _2_ MAC  --- 0 CTS 38 [2394 2 0 0] 
s 0.656016400 _2_ MAC  --- 27 tcp 1098 [13a 1 2 800] ------- [2:0 1:1 32 0] [7 0] 0 0
r 0.664800683 _1_ MAC  --- 27 tcp 1040 [13a 1 2 800] ------- [2:0 1:1 32 0] [7 0] 1 0
s 0.664810683 _1_ MAC  --- 0 ACK 38 [0 2 0 0] 
r 0.665114967 _2_ MAC  --- 0 ACK 38 [0 2 0 0] 
s 0.665224967 _2_ MAC  --- 0 RTS 44 [24ce 1 2 0] 
r 0.665577250 _1_ MAC  --- 0 RTS 44 [24ce 1 2 0] 
s 0.665587250 _1_ MAC  --- 0 CTS 38 [2394 2 0 0] 
r 0.665891533 _2_ MAC  --- 0 CTS 38 [2394 2 0 0] 
s 0.665901533 _2_ MAC  --- 28 tcp 1098 [13a 1 2 800] ------- [2:0 1:1 32 0] [8 0] 0 0
r 0.674685817 _1_ MAC  --- 28 tcp 1040 [13a 1 2 800] ------- [2:0 1:1 32 0] [8 0] 1 0
s 0.674695817 _1_ MAC  --- 0 ACK 38 [0 2 0 0] 
r 0.675000100 _2_ MAC  --- 0 ACK 38 [0 2 0 0] 
s 0.675110117 _0_ MAC  --- 0 RTS 44 [24ce 1 0 0] 
r 0.675462417 _1_ MAC  --- 0 RTS 44 [24ce 1 0 0] 
s 0.675472417 _1_ MAC  --- 0 CTS 38 [2394 0 0 0] 
r 0.675776717 _0_ MAC  --- 0 CTS 38 [2394 0 0 0] 
s 0.675786717 _0_ MAC  --- 25 tcp 1098 [13a 1 0 800] ------- [0:0 1:0 32 0] [7 0] 0 0
r 0.684571017 _1_ MAC  --- 25 tcp 1040 [13a 1 0 800] ------- [0:0 1:0 32 0] [7 0] 1 0
s 0.684581017 _1_ MAC  --- 0 ACK 38 [0 0 0 0] 
r 0.684885317 _0_ MAC  --- 0 ACK 38 [0 0 0 0] 
s 0.684995300 _2_ MAC  --- 0 RTS 44 [24ce 1 2 0] 
r 0.685347583 _1_ MAC  --- 0 RTS 44 [24ce 1 2 0] 
s 0.685357583 _1_ MAC  --- 0 CTS 38 [2394 2 0 0] 
r 0.685661867 _2_ MAC  --- 0 CTS 38 [2394 2 0 0] 
s 0.685671867 _2_ MAC  --- 29 tcp 1098 [13a 1 2 800] ------- [2:0 1:1 32 0] [9 0] 0 0
r 0.694456150 _1_ MAC  --- 29 tcp 1040 [13a 1 2 800] ------- [2:0 1:1 32 0] [9 0] 1 0
s 0.694466150 _1_ MAC  --- 0 ACK 38 [0 2 0 0] 
r 0.694770433 _2_ MAC  --- 0 ACK 38 [0 2 0 0] 
s 0.695080150 _1_ MAC  --- 0 RTS 44 [58e 2 1 0] 
r 0.695432433 _2_ MAC  --- 0 RTS 44 [58e 2 1 0] 
s 0.695442433 _2_ MAC  --- 0 CTS 38 [454 1 0 0] 
r 0.695746717 _1_ MAC  --- 0 CTS 38 [454 1 0 0] 
s 0.695756717 _1_ MAC  --- 39 ack 98 [13a 2 1 800] ------- [1:1 2:0 32 0] [6 0] 0 0
r 0.696541000 _2_ MAC  --- 39 ack 40 [13a 2 1 800] ------- [1:1 2:0 32 0] [6 0] 1 0
s 0.696551000 _2_ MAC  --- 0 ACK 38 [0 1 0 0] 
r 0.696855283 _1_ MAC  --- 0 ACK 38 [0 1 0 0] 
s 0.696945583 _0_ MAC  --- 0 RTS 44 [24ce 1 0 0] 
r 0.697297883 _1_ MAC  --- 0 RTS 44 [24ce 1 0 0] 
s 0.697307883 _1_ MAC  --- 0 CTS 38 [2394 0 0 0] 
r 0.697612183 _0_ MAC  --- 0 CTS 38 [2394 0 0 0] 
s 0.697622183 _0_ MAC  --- 26 tcp 1098 [13a 1 0 800] ------- [0:0 1:0 32 0] [8 0] 0 0
r 0.706406483 _1_ MAC  --- 26 tcp 1040 [13a 1 0 800] ------- [0:0 1:0 32 0] [8 0] 1 0
s 0.706416483 _1_ MAC  --- 0 ACK 38 [0 0 0 0] 
r 0.706720783 _0_ MAC  --- 0 ACK 38 [0 0 0 0] 
s 0.706950783 _0_ MAC  --- 0 RTS 44 [24ce 1 0 0] 
r 0.707303083 _1_ MAC  --- 0 RTS 44 [24ce 1 0 0] 
s 0.707313083 _1_ MAC  --- 0 CTS 38 [2394 0 0 0] 
r 0.707617383 _0_ MAC  --- 0 CTS 38 [2394 0 0 0] 
s 0.707627383 _0_ MAC  --- 31 tcp 1098 [13a 1 0 800] ------- [0:0 1:0 32 0] [9 0] 0 0
r 0.716411683 _1_ MAC  --- 31 tcp 1040 [13a 1 0 800] ------- [0:0 1:0 32 0] [9 0] 1 0
s 0.716421683 _1_ MAC  --- 0 ACK 38 [0 0 0 0] 
r 0.716725983 _0_ MAC  --- 0 ACK 38 [0 0 0 0] 
s 0.716795967 _2_ MAC  --- 0 RTS 44 [24ce 1 2 0] 
r 0.717148250 _1_ MAC  --- 0 RTS 44 [24ce 1 2 0] 
s 0.717158250 _1_ MAC  --- 0 CTS 38 [2394 2 0 0] 
r 0.717462533 _2_ MAC  --- 0 CTS 38 [2394 2 0 0] 
s 0.717472533 _2_ MAC  --- 30 tcp 1098 [13a 1 2 800] ------- [2:0 1:1 32 0] [10 0] 0 0
r 0.726256817 _1_ MAC  --- 30 tcp 1040 [13a 1 2 800] ------- [2:0 1:1 32 0] [10 0] 1 0
s 0.726266817 _1_ MAC  --- 0 ACK 38 [0 2 0 0] 
r 0.726571100 _2_ MAC  --- 0 ACK 38 [0 2 0 0] 
s 0.726660817 _1_ MAC  --- 0 RTS 44 [58e 2 1 0] 
r 0.727013100 _2_ MAC  --- 0 RTS 44 [58e 2 1 0] 
s 0.727023100 _2_ MAC  --- 0 CTS 38 [454 1 0 0] 
r 0.727327383 _1_ MAC  --- 0 CTS 38 [454 1 0 0] 
s 0.727337383 _1_ MAC  --- 42 ack 98 [13a 2 1 800] ------- [1:1 2:0 32 0] [7 0] 0 0
r 0.728121667 _2_ MAC  --- 42 ack 40 [13a 2 1 800] ------- [1:1 2:0 32 0] [7 0] 1 0
s 0.728131667 _2_ MAC  --- 0 ACK 38 [0 1 0 0] 
r 0.728435950 _1_ MAC  --- 0 ACK 38 [0 1 0 0] 
s 0.728485950 _1_ MAC  --- 0 RTS 44 [58e 2 1 0] 
r 0.728838233 _2_ MAC  --- 0 RTS 44 [58e 2 1 0] 
s 0.728848233 _2_ MAC  --- 0 CTS 38 [454 1 0 0] 
r 0.729152517 _1_ MAC  --- 0 CTS 38 [454 1 0 0] 
s 0.729162517 _1_ MAC  --- 43 ack 98 [13a 2 1 800] ------- [1:1 2:0 32 0] [8 0] 0 0
r 0.729946800 _2_ MAC  --- 43 ack 40 [13a 2 1 800] ------- [1:1 2:0 32 0] [8 0] 1 0
s 0.729956800 _2_ MAC  --- 0 ACK 38 [0 1 0 0] 
r 0.730261083 _1_ MAC  --- 0 ACK 38 [0 1 0 0] 
s 0.730531083 _1_ MAC  --- 0 RTS 44 [58e 0 1 0] 
r 0.730883383 _0_ MAC  --- 0 RTS 44 [58e 0 1 0] 
s 0.730893383 _0_ MAC  --- 0 CTS 38 [454 1 0 0] 
r 0.731197683 _1_ MAC  --- 0 CTS 38 [454 1 0 0] 
s 0.731207683 _1_ MAC  --- 44 ack 98 [13a 0 1 800] ------- [1:0 0:0 32 0] [7 0] 0 0
r 0.731991983 _0_ MAC  --- 44 ack 40 [13a 0 1 800] ------- [1:0 0:0 32 0] [7 0] 1 0
s 0.732001983 _0_ MAC  --- 0 ACK 38 [0 1 0 0] 
r 0.732306283 _1_ MAC  --- 0 ACK 38 [0 1 0 0] 
s 0.732395983 _0_ MAC  --- 0 RTS 44 [24ce 1 0 0] 
r 0.732748283 _1_ MAC  --- 0 RTS 44 [24ce 1 0 0] 
s 0.732758283 _1_ MAC  --- 0 CTS 38 [2394 0 0 0] 
r 0.733062583 _0_ MAC  --- 0 CTS 38 [2394 0 0 0] 
s 0.733072583 _0_ MAC  --- 32 tcp 1098 [13a 1 0 800] ------- [0:0 1:0 32 0] [10 0] 0 0
r 0.741856883 _1_ MAC  --- 32 tcp 1040 [13a 1 0 800] ------- [0:0 1:0 32 0] [10 0] 1 0
s 0.741866883 _1_ MAC  --- 0 ACK 38 [0 0 0 0] 
r 0.742171183 _0_ MAC  --- 0 ACK 38 [0 0 0 0] 
s 0.742381183 _0_ MAC  --- 0 RTS 44 [24ce 1 0 0] 
r 0.742733483 _1_ MAC  --- 0 RTS 44 [24ce 1 0 0] 
s 0.742743483 _1_ MAC  --- 0 CTS 38 [2394 0 0 0] 
r 0.743047783 _0_ MAC  --- 0 CTS 38 [2394 0 0 0] 
s 0.743057783 _0_ MAC  --- 37 tcp 1098 [13a 1 0 800] ------- [0:0 1:0 32 0] [11 0] 0 0
r 0.751842083 _1_ MAC  --- 37 tcp 1040 [13a 1 0 800] ------- [0:0 1:0 32 0] [11 0] 1 0
s 0.751852083 _1_ MAC  --- 0 ACK 38 [0 0 0 0] 
r 0.752156383 _0_ MAC  --- 0 ACK 38 [0 0 0 0] 
s 0.752226367 _2_ MAC  --- 0 RTS 44 [24ce 1 2 0] 
r 0.752578650 _1_ MAC  --- 0 RTS 44 [24ce 1 2 0] 
s 0.752588650 _1_ MAC  --- 0 CTS 38 [2394 2 0 0] 
r 0.752892933 _2_ MAC  --- 0 CTS 38 [2394 2 0 0] 
s 0.752902933 _2_ MAC  --- 34 tcp 1098 [13a 1 2 800] ------- [2:0 1:1 32 0] [11 0] 0 0
r 0.761687217 _1_ MAC  --- 34 tcp 1040 [13a 1 2 800] ------- [2:0 1:1 32 0] [11 0] 1 0
s 0.761697217 _1_ MAC  --- 0 ACK 38 [0 2 0 0] 
r 0.762001500 _2_ MAC  --- 0 ACK 38 [0 2 0 0] 
s 0.762131500 _2_ MAC  --- 0 RTS 44 [24ce 1 2 0] 
r 0.762483783 _1_ MAC  --- 0 RTS 44 [24ce 1 2 0] 
s 0.762493783 _1_ MAC  --- 0 CTS 38 [2394 2 0 0] 
r 0.762798067 _2_ MAC  --- 0 CTS 38 [2394 2 0 0] 
s 0.762808067 _2_ MAC  --- 35 tcp 1098 [13a 1 2 800] ------- [2:0 1:1 32 0] [12 0] 0 0
r 0.771592350 _1_ MAC  --- 35 tcp 1040 [13a 1 2 800] ------- [2:0 1:1 32 0] [12 0] 1 0
s 0.771602350 _1_ MAC  --- 0 ACK 38 [0 2 0 0] 
r 0.771906633 _2_ MAC  --- 0 ACK 38 [0 2 0 0] 
s 0.771976350 _1_ MAC  --- 0 RTS 44 [58e 2 1 0] 
r 0.772328633 _2_ MAC  --- 0 RTS 44 [58e 2 1 0] 
s 0.772338633 _2_ MAC  --- 0 CTS 38 [454 1 0 0] 
r 0.772642917 _1_ MAC  --- 0 CTS 38 [454 1 0 0] 
s 0.772652917 _1_ MAC  --- 45 ack 98 [13a 2 1 800] ------- [1:1 2:0 32 0] [9 0] 0 0
r 0.773437200 _2_ MAC  --- 45 ack 40 [13a 2 1 800] ------- [1:1 2:0 32 0] [9 0] 1 0
s 0.773447200 _2_ MAC  --- 0 ACK 38 [0 1 0 0] 
r 0.773751483 _1_ MAC  --- 0 ACK 38 [0 1 0 0] 
s 0.773801483 _1_ MAC  --- 0 RTS 44 [58e 0 1 0] 
r 0.774153783 _0_ MAC  --- 0 RTS 44 [58e 0 1 0] 
s 0.774163783 _0_ MAC  --- 0 CTS 38 [454 1 0 0] 
r 0.774468083 _1_ MAC  --- 0 CTS 38 [454 1 0 0] 
s 0.774478083 _1_ MAC  --- 48 ack 98 [13a 0 1 800] ------- [1:0 0:0 32 0] [8 0] 0 0
r 0.775262383 _0_ MAC  --- 48 ack 40 [13a 0 1 800] ------- [1:0 0:0 32 0] [8 0] 1 0
s 0.775272383 _0_ MAC  --- 0 ACK 38 [0 1 0 0] 
r 0.775576683 _1_ MAC  --- 0 ACK 38 [0 1 0 0] 
s 0.775746383 _0_ MAC  --- 0 RTS 44 [24ce 1 0 0] 
r 0.776098683 _1_ MAC  --- 0 RTS 44 [24ce 1 0 0] 
s 0.776108683 _1_ MAC  --- 0 CTS 38 [2394 0 0 0] 
r 0.776412983 _0_ MAC  --- 0 CTS 38 [2394 0 0 0] 
s 0.776422983 _0_ MAC  --- 38 tcp 1098 [13a 1 0 800] ------- [0:0 1:0 32 0] [12 0] 0 0
r 0.785207283 _1_ MAC  --- 38 tcp 1040 [13a 1 0 800] ------- [0:0 1:0 32 0] [12 0] 1 0
s 0.785217283 _1_ MAC  --- 0 ACK 38 [0 0 0 0] 
r 0.785521583 _0_ MAC  --- 0 ACK 38 [0 0 0 0] 
s 0.785691283 _1_ MAC  --- 0 RTS 44 [58e 0 1 0] 
r 0.786043583 _0_ MAC  --- 0 RTS 44 [58e 0 1 0] 
s 0.786053583 _0_ MAC  --- 0 CTS 38 [454 1 0 0] 
r 0.786357883 _1_ MAC  --- 0 CTS 38 [454 1 0 0] 
s 0.786367883 _1_ MAC  --- 49 ack 98 [13a 0 1 800] ------- [1:0 0:0 32 0] [9 0] 0 0
r 0.787152183 _0_ MAC  --- 49 ack 40 [13a 0 1 800] ------- [1:0 0:0 32 0] [9 0] 1 0
s 0.787162183 _0_ MAC  --- 0 ACK 38 [0 1 0 0] 
r 0.787466483 _1_ MAC  --- 0 ACK 38 [0 1 0 0] 
s 0.787576767 _2_ MAC  --- 0 RTS 44 [24ce 1 2 0] 
r 0.787929050 _1_ MAC  --- 0 RTS 44 [24ce 1 2 0] 
s 0.787939050 _1_ MAC  --- 0 CTS 38 [2394 2 0 0] 
r 0.788243333 _2_ MAC  --- 0 CTS 38 [2394 2 0 0] 
s 0.788253333 _2_ MAC  --- 46 tcp 1098 [13a 1 2 800] ------- [2:0 1:1 32 0] [13 0] 0 0
r 0.797037617 _1_ MAC  --- 46 tcp 1040 [13a 1 2 800] ------- [2:0 1:1 32 0] [13 0] 1 0
s 0.797047617 _1_ MAC  --- 0 ACK 38 [0 2 0 0] 
r 0.797351900 _2_ MAC  --- 0 ACK 38 [0 2 0 0] 
s 0.797421900 _2_ MAC  --- 0 RTS 44 [24ce 1 2 0] 
r 0.797774183 _1_ MAC  --- 0 RTS 44 [24ce 1 2 0] 
s 0.797784183 _1_ MAC  --- 0 CTS 38 [2394 2 0 0] 
r 0.798088467 _2_ MAC  --- 0 CTS 38 [2394 2 0 0] 
s 0.798098467 _2_ MAC  --- 47 tcp 1098 [13a 1 2 800] ------- [2:0 1:1 32 0] [14 0] 0 0
r 0.806882750 _1_ MAC  --- 47 tcp 1040 [13a 1 2 800] ------- [2:0 1:1 32 0] [14 0] 1 0
s 0.806892750 _1_ MAC  --- 0 ACK 38 [0 2 0 0] 
r 0.807197033 _2_ MAC  --- 0 ACK 38 [0 2 0 0] 
s 0.807347050 _0_ MAC  --- 0 RTS 44 [24ce 1 0 0] 
r 0.807699350 _1_ MAC  --- 0 RTS 44 [24ce 1 0 0] 
s 0.807709350 _1_ MAC  --- 0 CTS 38 [2394 0 0 0] 
r 0.808013650 _0_ MAC  --- 0 CTS 38 [2394 0 0 0] 
s 0.808023650 _0_ MAC  --- 40 tcp 1098 [13a 1 0 800] ------- [0:0 1:0 32 0] [13 0] 0 0
r 0.816807950 _1_ MAC  --- 40 tcp 1040 [13a 1 0 800] ------- [0:0 1:0 32 0] [13 0] 1 0
s 0.816817950 _1_ MAC  --- 0 ACK 38 [0 0 0 0] 
r 0.817122250 _0_ MAC  --- 0 ACK 38 [0 0 0 0] 
s 0.817271950 _1_ MAC  --- 0 RTS 44 [58e 2 1 0] 
r 0.817624233 _2_ MAC  --- 0 RTS 44 [58e 2 1 0] 
s 0.817634233 _2_ MAC  --- 0 CTS 38 [454 1 0 0] 
r 0.817938517 _1_ MAC  --- 0 CTS 38 [454 1 0 0] 
s 0.817948517 _1_ MAC  --- 50 ack 98 [13a 2 1 800] ------- [1:1 2:0 32 0] [10 0] 0 0
r 0.818732800 _2_ MAC  --- 50 ack 40 [13a 2 1 800] ------- [1:1 2:0 32 0] [10 0] 1 0
s 0.818742800 _2_ MAC  --- 0 ACK 38 [0 1 0 0] 
r 0.819047083 _1_ MAC  --- 0 ACK 38 [0 1 0 0] 
s 0.819217083 _1_ MAC  --- 0 RTS 44 [58e 0 1 0] 
r 0.819569383 _0_ MAC  --- 0 RTS 44 [58e 0 1 0] 
s 0.819579383 _0_ MAC  --- 0 CTS 38 [454 1 0 0] 
r 0.819883683 _1_ MAC  --- 0 CTS 38 [454 1 0 0] 
s 0.819893683 _1_ MAC  --- 57 ack 98 [13a 0 1 800] ------- [1:0 0:0 32 0] [10 0] 0 0
r 0.820677983 _0_ MAC  --- 57 ack 40 [13a 0 1 800] ------- [1:0 0:0 32 0] [10 0] 1 0
s 0.820687983 _0_ MAC  --- 0 ACK 38 [0 1 0 0] 
r 0.820992283 _1_ MAC  --- 0 ACK 38 [0 1 0 0] 
s 0.821081983 _0_ MAC  --- 0 RTS 44 [24ce 1 0 0] 
r 0.821434283 _1_ MAC  --- 0 RTS 44 [24ce 1 0 0] 
s 0.821444283 _1_ MAC  --- 0 CTS 38 [2394 0 0 0] 
r 0.821748583 _0_ MAC  --- 0 CTS 38 [2394 0 0 0] 
s 0.821758583 _0_ MAC  --- 41 tcp 1098 [13a 1 0 800] ------- [0:0 1:0 32 0] [14 0] 0 0
r 0.830542883 _1_ MAC  --- 41 tcp 1040 [13a 1 0 800] ------- [0:0 1:0 32 0] [14 0] 1 0
s 0.830552883 _1_ MAC  --- 0 ACK 38 [0 0 0 0] 
r 0.830857183 _0_ MAC  --- 0 ACK 38 [0 0 0 0] 
s 0.830947183 _0_ MAC  --- 0 RTS 44 [24ce 1 0 0] 
r 0.831299483 _1_ MAC  --- 0 RTS 44 [24ce 1 0 0] 
s 0.831309483 _1_ MAC  --- 0 CTS 38 [2394 0 0 0] 
r 0.831613783 _0_ MAC  --- 0 CTS 38 [2394 0 0 0] 
s 0.831623783 _0_ MAC  --- 55 tcp 1098 [13a 1 0 800] ------- [0:0 1:0 32 0] [15 0] 0 0
r 0.840408083 _1_ MAC  --- 55 tcp 1040 [13a 1 0 800] ------- [0:0 1:0 32 0] [15 0] 1 0
s 0.840418083 _1_ MAC  --- 0 ACK 38 [0 0 0 0] 
r 0.840722383 _0_ MAC  --- 0 ACK 38 [0 0 0 0] 
s 0.840872367 _2_ MAC  --- 0 RTS 44 [24ce 1 2 0] 
r 0.841224650 _1_ MAC  --- 0 RTS 44 [24ce 1 2 0] 
s 0.841234650 _1_ MAC  --- 0 CTS 38 [2394 2 0 0] 
r 0.841538933 _2_ MAC  --- 0 CTS 38 [2394 2 0 0] 
s 0.841548933 _2_ MAC  --- 51 tcp 1098 [13a 1 2 800] ------- [2:0 1:1 32 0] [15 0] 0 0
r 0.850333217 _1_ MAC  --- 51 tcp 1040 [13a 1 2 800] ------- [2:0 1:1 32 0] [15 0] 1 0
s 0.850343217 _1_ MAC  --- 0 ACK 38 [0 2 0 0] 
r 0.850647500 _2_ MAC  --- 0 ACK 38 [0 2 0 0] 
s 0.850817217 _1_ MAC  --- 0 RTS 44 [58e 0 1 0] 
s 0.850817500 _2_ MAC  --- 0 RTS 44 [24ce 1 2 0] 
r 0.851169517 _0_ MAC  --- 0 RTS 44 [58e 0 1 0] 
s 0.851703500 _2_ MAC  --- 0 RTS 44 [24ce 1 2 0] 
r 0.852055783 _1_ MAC  --- 0 RTS 44 [24ce 1 2 0] 
s 0.852065783 _1_ MAC  --- 0 CTS 38 [2394 2 0 0] 
r 0.852370067 _2_ MAC  --- 0 CTS 38 [2394 2 0 0] 
s 0.852380067 _2_ MAC  --- 52 tcp 1098 [13a 1 2 800] ------- [2:0 1:1 32 0] [16 0] 0 0
r 0.861164350 _1_ MAC  --- 52 tcp 1040 [13a 1 2 800] ------- [2:0 1:1 32 0] [16 0] 1 0
s 0.861174350 _1_ MAC  --- 0 ACK 38 [0 2 0 0] 
r 0.861478633 _2_ MAC  --- 0 ACK 38 [0 2 0 0] 
s 0.861608633 _2_ MAC  --- 0 RTS 44 [24ce 1 2 0] 
r 0.861960917 _1_ MAC  --- 0 RTS 44 [24ce 1 2 0] 
s 0.861970917 _1_ MAC  --- 0 CTS 38 [2394 2 0 0] 
r 0.862275200 _2_ MAC  --- 0 CTS 38 [2394 2 0 0] 
s 0.862285200 _2_ MAC  --- 53 tcp 1098 [13a 1 2 800] ------- [2:0 1:1 32 0] [17 0] 0 0
r 0.871069483 _1_ MAC  --- 53 tcp 1040 [13a 1 2 800] ------- [2:0 1:1 32 0] [17 0] 1 0
s 0.871079483 _1_ MAC  --- 0 ACK 38 [0 2 0 0] 
r 0.871383767 _2_ MAC  --- 0 ACK 38 [0 2 0 0] 
s 0.871493783 _0_ MAC  --- 0 RTS 44 [24ce 1 0 0] 
r 0.871846083 _1_ MAC  --- 0 RTS 44 [24ce 1 0 0] 
s 0.871856083 _1_ MAC  --- 0 CTS 38 [2394 0 0 0] 
r 0.872160383 _0_ MAC  --- 0 CTS 38 [2394 0 0 0] 
s 0.872170383 _0_ MAC  --- 56 tcp 1098 [13a 1 0 800] ------- [0:0 1:0 32 0] [16 0] 0 0
r 0.880954683 _1_ MAC  --- 56 tcp 1040 [13a 1 0 800] ------- [0:0 1:0 32 0] [16 0] 1 0
s 0.880964683 _1_ MAC  --- 0 ACK 38 [0 0 0 0] 
r 0.881268983 _0_ MAC  --- 0 ACK 38 [0 0 0 0] 
s 0.881478683 _1_ MAC  --- 0 RTS 44 [58e 0 1 0] 
r 0.881830983 _0_ MAC  --- 0 RTS 44 [58e 0 1 0] 
s 0.881840983 _0_ MAC  --- 0 CTS 38 [454 1 0 0] 
r 0.882145283 _1_ MAC  --- 0 CTS 38 [454 1 0 0] 
s 0.882155283 _1_ MAC  --- 58 ack 98 [13a 0 1 800] ------- [1:0 0:0 32 0] [11 0] 0 0
r 0.882939583 _0_ MAC  --- 58 ack 40 [13a 0 1 800] ------- [1:0 0:0 32 0] [11 0] 1 0
s 0.882949583 _0_ MAC  --- 0 ACK 38 [0 1 0 0] 
r 0.883253883 _1_ MAC  --- 0 ACK 38 [0 1 0 0] 
s 0.883343583 _0_ MAC  --- 0 RTS 44 [24ce 1 0 0] 
r 0.883695883 _1_ MAC  --- 0 RTS 44 [24ce 1 0 0] 
s 0.883705883 _1_ MAC  --- 0 CTS 38 [2394 0 0 0] 
r 0.884010183 _0_ MAC  --- 0 CTS 38 [2394 0 0 0] 
s 0.884020183 _0_ MAC  --- 63 tcp 1098 [13a 1 0 800] ------- [0:0 1:0 32 0] [17 0] 0 0
r 0.892804483 _1_ MAC  --- 63 tcp 1040 [13a 1 0 800] ------- [0:0 1:0 32 0] [17 0] 1 0
s 0.892814483 _1_ MAC  --- 0 ACK 38 [0 0 0 0] 
r 0.893118783 _0_ MAC  --- 0 ACK 38 [0 0 0 0] 
s 0.893188483 _1_ MAC  --- 0 RTS 44 [58e 2 1 0] 
r 0.893540767 _2_ MAC  --- 0 RTS 44 [58e 2 1 0] 
s 0.893550767 _2_ MAC  --- 0 CTS 38 [454 1 0 0] 
r 0.893855050 _1_ MAC  --- 0 CTS 38 [454 1 0 0] 
s 0.893865050 _1_ MAC  --- 59 ack 98 [13a 2 1 800] ------- [1:1 2:0 32 0] [11 0] 0 0
r 0.894649333 _2_ MAC  --- 59 ack 40 [13a 2 1 800] ------- [1:1 2:0 32 0] [11 0] 1 0
s 0.894659333 _2_ MAC  --- 0 ACK 38 [0 1 0 0] 
r 0.894963617 _1_ MAC  --- 0 ACK 38 [0 1 0 0] 
s 0.895033333 _2_ MAC  --- 0 RTS 44 [24ce 1 2 0] 
r 0.895385617 _1_ MAC  --- 0 RTS 44 [24ce 1 2 0] 
s 0.895395617 _1_ MAC  --- 0 CTS 38 [2394 2 0 0] 
r 0.895699900 _2_ MAC  --- 0 CTS 38 [2394 2 0 0] 
s 0.895709900 _2_ MAC  --- 54 tcp 1098 [13a 1 2 800] ------- [2:0 1:1 32 0] [18 0] 0 0
r 0.904494183 _1_ MAC  --- 54 tcp 1040 [13a 1 2 800] ------- [2:0 1:1 32 0] [18 0] 1 0
s 0.904504183 _1_ MAC  --- 0 ACK 38 [0 2 0 0] 
r 0.904808467 _2_ MAC  --- 0 ACK 38 [0 2 0 0] 
s 0.904978467 _2_ MAC  --- 0 RTS 44 [24ce 1 2 0] 