M 0.00000 0 (15.00, 15.00, 0.00), (50.00, 50.00), 5.00
M 0.00000 1 (150.00, 150.00, 0.00), (60.00, 40.00), 10.00
s 0.501355000 _0_ MAC  --- 0 ARP 28 [0 0 ffff0608 0] ------- [REQUEST 0/0 0/1]
r 0.501467611 _1_ MAC  --- 0 ARP 28 [0 0 ffff0608 0] ------- [REQUEST 0/0 0/1]
s 0.503272611 _1_ MAC  --- 0 ARP 28 [0 1000000 608 0] ------- [REPLY 1/1 0/0]
r 0.503385223 _0_ MAC  --- 0 ARP 28 [0 1000000 608 0] ------- [REPLY 1/1 0/0]
s 0.505140223 _0_ MAC  --- 0 tcp 40 [0 0 8 0] ------- [0:0 1:0 32 0] [0 0] 0 0
r 0.505300834 _1_ MAC  --- 0 tcp 40 [0 0 8 0] ------- [0:0 1:0 32 0] [0 0] 0 0
s 0.506500834 _1_ MAC  --- 1 ack 40 [0 1000000 8 0] ------- [1:0 0:0 32 0] [0 0] 0 0
r 0.506661445 _0_ MAC  --- 1 ack 40 [0 1000000 8 0] ------- [1:0 0:0 32 0] [0 0] 0 0
s 0.508111445 _0_ MAC  --- 2 tcp 1040 [0 0 8 0] ------- [0:0 1:0 32 0] [1 0] 0 0
r 0.512272056 _1_ MAC  --- 2 tcp 1040 [0 0 8 0] ------- [0:0 1:0 32 0] [1 0] 0 0
s 0.512621445 _0_ MAC  --- 3 tcp 1040 [0 0 8 0] ------- [0:0 1:0 32 0] [2 0] 0 0
s 0.512772056 _1_ MAC  --- 4 ack 40 [0 1000000 8 0] ------- [1:0 0:0 32 0] [1 0] 0 0
r 0.516782056 _1_ MAC  --- 3 tcp 1040 [0 0 8 0] ------- [0:0 1:0 32 0] [2 0] 0 0
s 0.518082056 _1_ MAC  --- 5 ack 40 [0 1000000 8 0] ------- [1:0 0:0 32 0] [2 0] 0 0
r 0.518242667 _0_ MAC  --- 5 ack 40 [0 1000000 8 0] ------- [1:0 0:0 32 0] [2 0] 0 0
s 0.518692667 _0_ MAC  --- 6 tcp 1040 [0 0 8 0] ------- [0:0 1:0 32 0] [3 0] 0 0
r 0.522853277 _1_ MAC  --- 6 tcp 1040 [0 0 8 0] ------- [0:0 1:0 32 0] [3 0] 0 0
s 0.523952667 _0_ MAC  --- 7 tcp 1040 [0 0 8 0] ------- [0:0 1:0 32 0] [4 0] 0 0
s 0.524853277 _1_ MAC  --- 9 ack 40 [0 1000000 8 0] ------- [1:0 0:0 32 0] [3 0] 0 0
r 0.528113277 _1_ MAC  --- 7 tcp 1040 [0 0 8 0] ------- [0:0 1:0 32 0] [4 0] 0 0
s 0.528763277 _1_ MAC  --- 10 ack 40 [0 1000000 8 0] ------- [1:0 0:0 32 0] [4 0] 0 0
s 0.528912667 _0_ MAC  --- 8 tcp 1040 [0 0 8 0] ------- [0:0 1:0 32 0] [5 0] 0 0
D 0.533073277 _1_ MAC  ERR 8 tcp 1040 [0 0 8 0] ------- [0:0 1:0 32 0] [5 0] 0 0
s 0.719842667 _0_ MAC  --- 11 tcp 1040 [0 0 8 0] ------- [0:0 1:0 32 0] [3 0] 0 0
r 0.724003267 _1_ MAC  --- 11 tcp 1040 [0 0 8 0] ------- [0:0 1:0 32 0] [3 0] 0 0
s 0.725653267 _1_ MAC  --- 12 ack 40 [0 1000000 8 0] ------- [1:0 0:0 32 0] [4 0] 0 0
r 0.725813867 _0_ MAC  --- 12 ack 40 [0 1000000 8 0] ------- [1:0 0:0 32 0] [4 0] 0 0
s 0.726413867 _0_ MAC  --- 13 tcp 1040 [0 0 8 0] ------- [0:0 1:0 32 0] [5 0] 0 0
r 0.730574468 _1_ MAC  --- 13 tcp 1040 [0 0 8 0] ------- [0:0 1:0 32 0] [5 0] 0 0
s 0.731824468 _1_ MAC  --- 15 ack 40 [0 1000000 8 0] ------- [1:0 0:0 32 0] [5 0] 0 0
r 0.731985067 _0_ MAC  --- 15 ack 40 [0 1000000 8 0] ------- [1:0 0:0 32 0] [5 0] 0 0
s 0.732223867 _0_ MAC  --- 14 tcp 1040 [0 0 8 0] ------- [0:0 1:0 32 0] [6 0] 0 0
r 0.736384467 _1_ MAC  --- 14 tcp 1040 [0 0 8 0] ------- [0:0 1:0 32 0] [6 0] 0 0
s 0.736883867 _0_ MAC  --- 16 tcp 1040 [0 0 8 0] ------- [0:0 1:0 32 0] [7 0] 0 0
s 0.737534467 _1_ MAC  --- 17 ack 40 [0 1000000 8 0] ------- [1:0 0:0 32 0] [6 0] 0 0
r 0.741044467 _1_ MAC  --- 16 tcp 1040 [0 0 8 0] ------- [0:0 1:0 32 0] [7 0] 0 0
s 0.741544467 _1_ MAC  --- 18 ack 40 [0 1000000 8 0] ------- [1:0 0:0 32 0] [7 0] 0 0
r 0.741705066 _0_ MAC  --- 18 ack 40 [0 1000000 8 0] ------- [1:0 0:0 32 0] [7 0] 0 0
s 0.742205066 _0_ MAC  --- 19 tcp 1040 [0 0 8 0] ------- [0:0 1:0 32 0] [8 0] 0 0
r 0.746365666 _1_ MAC  --- 19 tcp 1040 [0 0 8 0] ------- [0:0 1:0 32 0] [8 0] 0 0
s 0.746665066 _0_ MAC  --- 20 tcp 1040 [0 0 8 0] ------- [0:0 1:0 32 0] [9 0] 0 0
s 0.746665666 _1_ MAC  --- 21 ack 40 [0 1000000 8 0] ------- [1:0 0:0 32 0] [8 0] 0 0
r 0.750825666 _1_ MAC  --- 20 tcp 1040 [0 0 8 0] ------- [0:0 1:0 32 0] [9 0] 0 0
s 0.752425666 _1_ MAC  --- 22 ack 40 [0 1000000 8 0] ------- [1:0 0:0 32 0] [9 0] 0 0
r 0.752586265 _0_ MAC  --- 22 ack 40 [0 1000000 8 0] ------- [1:0 0:0 32 0] [9 0] 0 0
s 0.752686265 _0_ MAC  --- 23 tcp 1040 [0 0 8 0] ------- [0:0 1:0 32 0] [10 0] 0 0
r 0.756846863 _1_ MAC  --- 23 tcp 1040 [0 0 8 0] ------- [0:0 1:0 32 0] [10 0] 0 0
s 0.757396863 _1_ MAC  --- 26 ack 40 [0 1000000 8 0] ------- [1:0 0:0 32 0] [10 0] 0 0
r 0.757557462 _0_ MAC  --- 26 ack 40 [0 1000000 8 0] ------- [1:0 0:0 32 0] [10 0] 0 0
s 0.758296265 _0_ MAC  --- 24 tcp 1040 [0 0 8 0] ------- [0:0 1:0 32 0] [11 0] 0 0
r 0.762456863 _1_ MAC  --- 24 tcp 1040 [0 0 8 0] ------- [0:0 1:0 32 0] [11 0] 0 0
s 0.763056863 _1_ MAC  --- 28 ack 40 [0 1000000 8 0] ------- [1:0 0:0 32 0] [11 0] 0 0
r 0.763217462 _0_ MAC  --- 28 ack 40 [0 1000000 8 0] ------- [1:0 0:0 32 0] [11 0] 0 0
s 0.763856265 _0_ MAC  --- 25 tcp 1040 [0 0 8 0] ------- [0:0 1:0 32 0] [12 0] 0 0
r 0.768016863 _1_ MAC  --- 25 tcp 1040 [0 0 8 0] ------- [0:0 1:0 32 0] [12 0] 0 0
s 0.768166265 _0_ MAC  --- 27 tcp 1040 [0 0 8 0] ------- [0:0 1:0 32 0] [13 0] 0 0
s 0.769016863 _1_ MAC  --- 30 ack 40 [0 1000000 8 0] ------- [1:0 0:0 32 0] [12 0] 0 0
r 0.772326863 _1_ MAC  --- 27 tcp 1040 [0 0 8 0] ------- [0:0 1:0 32 0] [13 0] 0 0
s 0.772576265 _0_ MAC  --- 29 tcp 1040 [0 0 8 0] ------- [0:0 1:0 32 0] [14 0] 0 0
s 0.774226863 _1_ MAC  --- 31 ack 40 [0 1000000 8 0] ------- [1:0 0:0 32 0] [13 0] 0 0
r 0.776736862 _1_ MAC  --- 29 tcp 1040 [0 0 8 0] ------- [0:0 1:0 32 0] [14 0] 0 0
s 0.778136862 _1_ MAC  --- 32 ack 40 [0 1000000 8 0] ------- [1:0 0:0 32 0] [14 0] 0 0
r 0.778297460 _0_ MAC  --- 32 ack 40 [0 1000000 8 0] ------- [1:0 0:0 32 0] [14 0] 0 0
s 0.778947460 _0_ MAC  --- 33 tcp 1040 [0 0 8 0] ------- [0:0 1:0 32 0] [15 0] 0 0
r 0.783108058 _1_ MAC  --- 33 tcp 1040 [0 0 8 0] ------- [0:0 1:0 32 0] [15 0] 0 0
s 0.783957460 _0_ MAC  --- 34 tcp 1040 [0 0 8 0] ------- [0:0 1:0 32 0] [16 0] 0 0
s 0.784758058 _1_ MAC  --- 37 ack 40 [0 1000000 8 0] ------- [1:0 0:0 32 0] [15 0] 0 0
r 0.788118057 _1_ MAC  --- 34 tcp 1040 [0 0 8 0] ------- [0:0 1:0 32 0] [16 0] 0 0
s 0.789267460 _0_ MAC  --- 35 tcp 1040 [0 0 8 0] ------- [0:0 1:0 32 0] [17 0] 0 0
s 0.789818057 _1_ MAC  --- 38 ack 40 [0 1000000 8 0] ------- [1:0 0:0 32 0] [16 0] 0 0
r 0.793428057 _1_ MAC  --- 35 tcp 1040 [0 0 8 0] ------- [0:0 1:0 32 0] [17 0] 0 0
s 0.794378057 _1_ MAC  --- 39 ack 40 [0 1000000 8 0] ------- [1:0 0:0 32 0] [17 0] 0 0
r 0.794538654 _0_ MAC  --- 39 ack 40 [0 1000000 8 0] ------- [1:0 0:0 32 0] [17 0] 0 0
s 0.794977460 _0_ MAC  --- 36 tcp 1040 [0 0 8 0] ------- [0:0 1:0 32 0] [18 0] 0 0
r 0.799138057 _1_ MAC  --- 36 tcp 1040 [0 0 8 0] ------- [0:0 1:0 32 0] [18 0] 0 0
s 0.799487460 _0_ MAC  --- 40 tcp 1040 [0 0 8 0] ------- [0:0 1:0 32 0] [19 0] 0 0
s 0.799638057 _1_ MAC  --- 43 ack 40 [0 1000000 8 0] ------- [1:0 0:0 32 0] [18 0] 0 0
r 0.803648057 _1_ MAC  --- 40 tcp 1040 [0 0 8 0] ------- [0:0 1:0 32 0] [19 0] 0 0
s 0.803898057 _1_ MAC  --- 44 ack 40 [0 1000000 8 0] ------- [1:0 0:0 32 0] [19 0] 0 0
r 0.804058653 _0_ MAC  --- 44 ack 40 [0 1000000 8 0] ------- [1:0 0:0 32 0] [19 0] 0 0
s 0.804897460 _0_ MAC  --- 41 tcp 1040 [0 0 8 0] ------- [0:0 1:0 32 0] [20 0] 0 0
r 0.809058056 _1_ MAC  --- 41 tcp 1040 [0 0 8 0] ------- [0:0 1:0 32 0] [20 0] 0 0
s 0.810257460 _0_ MAC  --- 42 tcp 1040 [0 0 8 0] ------- [0:0 1:0 32 0] [21 0] 0 0
s 0.810958056 _1_ MAC  --- 47 ack 40 [0 1000000 8 0] ------- [1:0 0:0 32 0] [20 0] 0 0
r 0.814418056 _1_ MAC  --- 42 tcp 1040 [0 0 8 0] ------- [0:0 1:0 32 0] [21 0] 0 0
s 0.814918056 _1_ MAC  --- 48 ack 40 [0 1000000 8 0] ------- [1:0 0:0 32 0] [21 0] 0 0
s 0.815017460 _0_ MAC  --- 45 tcp 1040 [0 0 8 0] ------- [0:0 1:0 32 0] [22 0] 0 0
D 0.819178056 _1_ MAC  ERR 45 tcp 1040 [0 0 8 0] ------- [0:0 1:0 32 0] [22 0] 0 0
s 0.820427460 _0_ MAC  --- 46 tcp 1040 [0 0 8 0] ------- [0:0 1:0 32 0] [23 0] 0 0
r 0.824588056 _1_ MAC  --- 46 tcp 1040 [0 0 8 0] ------- [0:0 1:0 32 0] [23 0] 0 0
s 0.824788056 _1_ MAC  --- 49 ack 40 [0 1000000 8 0] ------- [1:0 0:0 32 0] [21 0] 0 0
r 0.824948651 _0_ MAC  --- 49 ack 40 [0 1000000 8 0] ------- [1:0 0:0 32 0] [21 0] 0 0
s 0.826698651 _0_ MAC  --- 50 tcp 1040 [0 0 8 0] ------- [0:0 1:0 32 0] [24 0] 0 0
r 0.830859246 _1_ MAC  --- 50 tcp 1040 [0 0 8 0] ------- [0:0 1:0 32 0] [24 0] 0 0
s 0.831158651 _0_ MAC  --- 51 tcp 1040 [0 0 8 0] ------- [0:0 1:0 32 0] [25 0] 0 0
s 0.832359246 _1_ MAC  --- 52 ack 40 [0 1000000 8 0] ------- [1:0 0:0 32 0] [21 0] 0 0
r 0.835319246 _1_ MAC  --- 51 tcp 1040 [0 0 8 0] ------- [0:0 1:0 32 0] [25 0] 0 0
s 0.836419246 _1_ MAC  --- 53 ack 40 [0 1000000 8 0] ------- [1:0 0:0 32 0] [21 0] 0 0
r 0.836579841 _0_ MAC  --- 53 ack 40 [0 1000000 8 0] ------- [1:0 0:0 32 0] [21 0] 0 0
s 0.837779841 _0_ MAC  --- 54 tcp 1040 [0 0 8 0] ------- [0:0 1:0 32 0] [26 0] 0 0
r 0.841940435 _1_ MAC  --- 54 tcp 1040 [0 0 8 0] ------- [0:0 1:0 32 0] [26 0] 0 0
s 0.843190435 _1_ MAC  --- 55 ack 40 [0 1000000 8 0] ------- [1:0 0:0 32 0] [21 0] 0 0
r 0.843351030 _0_ MAC  --- 55 ack 40 [0 1000000 8 0] ------- [1:0 0:0 32 0] [21 0] 0 0
s 0.843701030 _0_ MAC  --- 56 tcp 1040 [0 0 8 0] ------- [0:0 1:0 32 0] [27 0] 0 0
r 0.847861624 _1_ MAC  --- 56 tcp 1040 [0 0 8 0] ------- [0:0 1:0 32 0] [27 0] 0 0
s 0.848061624 _1_ MAC  --- 57 ack 40 [0 1000000 8 0] ------- [1:0 0:0 32 0] [21 0] 0 0
r 0.848222218 _0_ MAC  --- 57 ack 40 [0 1000000 8 0] ------- [1:0 0:0 32 0] [21 0] 0 0
s 0.849272218 _0_ MAC  --- 58 tcp 1040 [0 0 8 0] ------- [0:0 1:0 32 0] [22 0] 0 0
r 0.853432812 _1_ MAC  --- 58 tcp 1040 [0 0 8 0] ------- [0:0 1:0 32 0] [22 0] 0 0
s 0.854732812 _1_ MAC  --- 59 ack 40 [0 1000000 8 0] ------- [1:0 0:0 32 0] [27 0] 0 0
r 0.854893406 _0_ MAC  --- 59 ack 40 [0 1000000 8 0] ------- [1:0 0:0 32 0] [27 0] 0 0
s 0.855193406 _0_ MAC  --- 60 tcp 1040 [0 0 8 0] ------- [0:0 1:0 32 0] [28 0] 0 0
r 0.859354000 _1_ MAC  --- 60 tcp 1040 [0 0 8 0] ------- [0:0 1:0 32 0] [28 0] 0 0
s 0.860103406 _0_ MAC  --- 61 tcp 1040 [0 0 8 0] ------- [0:0 1:0 32 0] [29 0] 0 0
s 0.860804000 _1_ MAC  --- 62 ack 40 [0 1000000 8 0] ------- [1:0 0:0 32 0] [28 0] 0 0
r 0.864264000 _1_ MAC  --- 61 tcp 1040 [0 0 8 0] ------- [0:0 1:0 32 0] [29 0] 0 0
s 0.864464000 _1_ MAC  --- 63 ack 40 [0 1000000 8 0] ------- [1:0 0:0 32 0] [29 0] 0 0
r 0.864624593 _0_ MAC  --- 63 ack 40 [0 1000000 8 0] ------- [1:0 0:0 32 0] [29 0] 0 0
s 0.866524593 _0_ MAC  --- 64 tcp 1040 [0 0 8 0] ------- [0:0 1:0 32 0] [30 0] 0 0
r 0.870685186 _1_ MAC  --- 64 tcp 1040 [0 0 8 0] ------- [0:0 1:0 32 0] [30 0] 0 0
s 0.872034593 _0_ MAC  --- 65 tcp 1040 [0 0 8 0] ------- [0:0 1:0 32 0] [31 0] 0 0
s 0.872435186 _1_ MAC  --- 66 ack 40 [0 1000000 8 0] ------- [1:0 0:0 32 0] [30 0] 0 0
r 0.876195186 _1_ MAC  --- 65 tcp 1040 [0 0 8 0] ------- [0:0 1:0 32 0] [31 0] 0 0
s 0.876545186 _1_ MAC  --- 67 ack 40 [0 1000000 8 0] ------- [1:0 0:0 32 0] [31 0] 0 0
r 0.876705779 _0_ MAC  --- 67 ack 40 [0 1000000 8 0] ------- [1:0 0:0 32 0] [31 0] 0 0
s 0.877355779 _0_ MAC  --- 68 tcp 1040 [0 0 8 0] ------- [0:0 1:0 32 0] [32 0] 0 0
r 0.881516371 _1_ MAC  --- 68 tcp 1040 [0 0 8 0] ------- [0:0 1:0 32 0] [32 0] 0 0
s 0.882065779 _0_ MAC  --- 69 tcp 1040 [0 0 8 0] ------- [0:0 1:0 32 0] [33 0] 0 0
s 0.882066371 _1_ MAC  --- 70 ack 40 [0 1000000 8 0] ------- [1:0 0:0 32 0] [32 0] 0 0
r 0.886226371 _1_ MAC  --- 69 tcp 1040 [0 0 8 0] ------- [0:0 1:0 32 0] [33 0] 0 0
s 0.886976371 _1_ MAC  --- 71 ack 40 [0 1000000 8 0] ------- [1:0 0:0 32 0] [33 0] 0 0
r 0.887136963 _0_ MAC  --- 71 ack 40 [0 1000000 8 0] ------- [1:0 0:0 32 0] [33 0] 0 0
s 0.888636963 _0_ MAC  --- 72 tcp 1040 [0 0 8 0] ------- [0:0 1:0 32 0] [34 0] 0 0
r 0.892797555 _1_ MAC  --- 72 tcp 1040 [0 0 8 0] ------- [0:0 1:0 32 0] [34 0] 0 0
s 0.894597555 _1_ MAC  --- 75 ack 40 [0 1000000 8 0] ------- [1:0 0:0 32 0] [34 0] 0 0
s 0.894746963 _0_ MAC  --- 73 tcp 1040 [0 0 8 0] ------- [0:0 1:0 32 0] [35 0] 0 0
D 0.898907555 _1_ MAC  ERR 73 tcp 1040 [0 0 8 0] ------- [0:0 1:0 32 0] [35 0] 0 0
s 0.899206963 _0_ MAC  --- 74 tcp 1040 [0 0 8 0] ------- [0:0 1:0 32 0] [36 0] 0 0
r 0.903367555 _1_ MAC  --- 74 tcp 1040 [0 0 8 0] ------- [0:0 1:0 32 0] [36 0] 0 0
s 0.904617555 _1_ MAC  --- 76 ack 40 [0 1000000 8 0] ------- [1:0 0:0 32 0] [34 0] 0 0
r 0.904778146 _0_ MAC  --- 76 ack 40 [0 1000000 8 0] ------- [1:0 0:0 32 0] [34 0] 0 0
s 0.904828146 _0_ MAC  --- 77 tcp 1040 [0 0 8 0] ------- [0:0 1:0 32 0] [37 0] 0 0
r 0.908988737 _1_ MAC  --- 77 tcp 1040 [0 0 8 0] ------- [0:0 1:0 32 0] [37 0] 0 0
s 0.909988737 _1_ MAC  --- 78 ack 40 [0 1000000 8 0] ------- [1:0 0:0 32 0] [34 0] 0 0
r 0.910149328 _0_ MAC  --- 78 ack 40 [0 1000000 8 0] ------- [1:0 0:0 32 0] [34 0] 0 0
s 0.911649328 _0_ MAC  --- 79 tcp 1040 [0 0 8 0] ------- [0:0 1:0 32 0] [38 0] 0 0
r 0.915809919 _1_ MAC  --- 79 tcp 1040 [0 0 8 0] ------- [0:0 1:0 32 0] [38 0] 0 0
s 0.916859919 _1_ MAC  --- 80 ack 40 [0 1000000 8 0] ------- [1:0 0:0 32 0] [34 0] 0 0
r 0.917020510 _0_ MAC  --- 80 ack 40 [0 1000000 8 0] ------- [1:0 0:0 32 0] [34 0] 0 0
s 0.917920510 _0_ MAC  --- 81 tcp 1040 [0 0 8 0] ------- [0:0 1:0 32 0] [39 0] 0 0
r 0.922081101 _1_ MAC  --- 81 tcp 1040 [0 0 8 0] ------- [0:0 1:0 32 0] [39 0] 0 0
s 0.922481101 _1_ MAC  --- 82 ack 40 [0 1000000 8 0] ------- [1:0 0:0 32 0] [34 0] 0 0
r 0.922641691 _0_ MAC  --- 82 ack 40 [0 1000000 8 0] ------- [1:0 0:0 32 0] [34 0] 0 0
s 0.923841691 _0_ MAC  --- 83 tcp 1040 [0 0 8 0] ------- [0:0 1:0 32 0] [35 0] 0 0
r 0.928002282 _1_ MAC  --- 83 tcp 1040 [0 0 8 0] ------- [0:0 1:0 32 0] [35 0] 0 0
s 0.929802282 _1_ MAC  --- 84 ack 40 [0 1000000 8 0] ------- [1:0 0:0 32 0] [39 0] 0 0
r 0.929962872 _0_ MAC  --- 84 ack 40 [0 1000000 8 0] ------- [1:0 0:0 32 0] [39 0] 0 0
s 0.930512872 _0_ MAC  --- 85 tcp 1040 [0 0 8 0] ------- [0:0 1:0 32 0] [40 0] 0 0
r 0.934673462 _1_ MAC  --- 85 tcp 1040 [0 0 8 0] ------- [0:0 1:0 32 0] [40 0] 0 0
s 0.935673462 _1_ MAC  --- 87 ack 40 [0 1000000 8 0] ------- [1:0 0:0 32 0] [40 0] 0 0
r 0.935834051 _0_ MAC  --- 87 ack 40 [0 1000000 8 0] ------- [1:0 0:0 32 0] [40 0] 0 0
s 0.936172872 _0_ MAC  --- 86 tcp 1040 [0 0 8 0] ------- [0:0 1:0 32 0] [41 0] 0 0
r 0.940333461 _1_ MAC  --- 86 tcp 1040 [0 0 8 0] ------- [0:0 1:0 32 0] [41 0] 0 0
s 0.940582872 _0_ MAC  --- 88 tcp 1040 [0 0 8 0] ------- [0:0 1:0 32 0] [42 0] 0 0
s 0.940883461 _1_ MAC  --- 89 ack 40 [0 1000000 8 0] ------- [1:0 0:0 32 0] [41 0] 0 0
r 0.944743461 _1_ MAC  --- 88 tcp 1040 [0 0 8 0] ------- [0:0 1:0 32 0] [42 0] 0 0
s 0.944843461 _1_ MAC  --- 90 ack 40 [0 1000000 8 0] ------- [1:0 0:0 32 0] [42 0] 0 0
r 0.945004051 _0_ MAC  --- 90 ack 40 [0 1000000 8 0] ------- [1:0 0:0 32 0] [42 0] 0 0
s 0.945204051 _0_ MAC  --- 91 tcp 1040 [0 0 8 0] ------- [0:0 1:0 32 0] [43 0] 0 0
r 0.949364640 _1_ MAC  --- 91 tcp 1040 [0 0 8 0] ------- [0:0 1:0 32 0] [43 0] 0 0
s 0.949664051 _0_ MAC  --- 92 tcp 1040 [0 0 8 0] ------- [0:0 1:0 32 0] [44 0] 0 0
s 0.950264640 _1_ MAC  --- 93 ack 40 [0 1000000 8 0] ------- [1:0 0:0 32 0] [43 0] 0 0
r 0.953824640 _1_ MAC  --- 92 tcp 1040 [0 0 8 0] ------- [0:0 1:0 32 0] [44 0] 0 0
s 0.955474640 _1_ MAC  --- 94 ack 40 [0 1000000 8 0] ------- [1:0 0:0 32 0] [44 0] 0 0
r 0.955635228 _0_ MAC  --- 94 ack 40 [0 1000000 8 0] ------- [1:0 0:0 32 0] [44 0] 0 0
s 0.955985228 _0_ MAC  --- 95 tcp 1040 [0 0 8 0] ------- [0:0 1:0 32 0] [45 0] 0 0
r 0.960145817 _1_ MAC  --- 95 tcp 1040 [0 0 8 0] ------- [0:0 1:0 32 0] [45 0] 0 0
s 0.960645228 _0_ MAC  --- 96 tcp 1040 [0 0 8 0] ------- [0:0 1:0 32 0] [46 0] 0 0
s 0.961345817 _1_ MAC  --- 98 ack 40 [0 1000000 8 0] ------- [1:0 0:0 32 0] [45 0] 0 0
r 0.964805817 _1_ MAC  --- 96 tcp 1040 [0 0 8 0] ------- [0:0 1:0 32 0] [46 0] 0 0
s 0.965405817 _1_ MAC  --- 99 ack 40 [0 1000000 8 0] ------- [1:0 0:0 32 0] [46 0] 0 0
r 0.965566405 _0_ MAC  --- 99 ack 40 [0 1000000 8 0] ------- [1:0 0:0 32 0] [46 0] 0 0
s 0.966355228 _0_ MAC  --- 97 tcp 1040 [0 0 8 0] ------- [0:0 1:0 32 0] [47 0] 0 0
r 0.970515817 _1_ MAC  --- 97 tcp 1040 [0 0 8 0] ------- [0:0 1:0 32 0] [47 0] 0 0
s 0.971265817 _1_ MAC  --- 102 ack 40 [0 1000000 8 0] ------- [1:0 0:0 32 0] [47 0] 0 0
r 0.971426405 _0_ MAC  --- 102 ack 40 [0 1000000 8 0] ------- [1:0 0:0 32 0] [47 0] 0 0
s 0.971965228 _0_ MAC  --- 100 tcp 1040 [0 0 8 0] ------- [0:0 1:0 32 0] [48 0] 0 0
r 0.976125816 _1_ MAC  --- 100 tcp 1040 [0 0 8 0] ------- [0:0 1:0 32 0] [48 0] 0 0
s 0.976525816 _1_ MAC  --- 104 ack 40 [0 1000000 8 0] ------- [1:0 0:0 32 0] [48 0] 0 0
r 0.976686404 _0_ MAC  --- 104 ack 40 [0 1000000 8 0] ------- [1:0 0:0 32 0] [48 0] 0 0
s 0.976875228 _0_ MAC  --- 101 tcp 1040 [0 0 8 0] ------- [0:0 1:0 32 0] [49 0] 0 0
r 0.981035816 _1_ MAC  --- 101 tcp 1040 [0 0 8 0] ------- [0:0 1:0 32 0] [49 0] 0 0
s 0.981485816 _1_ MAC  --- 107 ack 40 [0 1000000 8 0] ------- [1:0 0:0 32 0] [49 0] 0 0
r 0.981646404 _0_ MAC  --- 107 ack 40 [0 1000000 8 0] ------- [1:0 0:0 32 0] [49 0] 0 0
s 0.981685228 _0_ MAC  --- 103 tcp 1040 [0 0 8 0] ------- [0:0 1:0 32 0] [50 0] 0 0
r 0.985845816 _1_ MAC  --- 103 tcp 1040 [0 0 8 0] ------- [0:0 1:0 32 0] [50 0] 0 0
s 0.986445816 _1_ MAC  --- 109 ack 40 [0 1000000 8 0] ------- [1:0 0:0 32 0] [50 0] 0 0
r 0.986606403 _0_ MAC  --- 109 ack 40 [0 1000000 8 0] ------- [1:0 0:0 32 0] [50 0] 0 0
s 0.987345228 _0_ MAC  --- 105 tcp 1040 [0 0 8 0] ------- [0:0 1:0 32 0] [51 0] 0 0
r 0.991505816 _1_ MAC  --- 105 tcp 1040 [0 0 8 0] ------- [0:0 1:0 32 0] [51 0] 0 0
s 0.993305228 _0_ MAC  --- 106 tcp 1040 [0 0 8 0] ------- [0:0 1:0 32 0] [52 0] 0 0
s 0.993505816 _1_ MAC  --- 111 ack 40 [0 1000000 8 0] ------- [1:0 0:0 32 0] [51 0] 0 0
r 0.997465815 _1_ MAC  --- 106 tcp 1040 [0 0 8 0] ------- [0:0 1:0 32 0] [52 0] 0 0
s 0.999065228 _0_ MAC  --- 108 tcp 1040 [0 0 8 0] ------- [0:0 1:0 32 0] [53 0] 0 0
s 0.999065815 _1_ MAC  --- 112 ack 40 [0 1000000 8 0] ------- [1:0 0:0 32 0] [52 0] 0 0
r 1.003225815 _1_ MAC  --- 108 tcp 1040 [0 0 8 0] ------- [0:0 1:0 32 0] [53 0] 0 0
s 1.004275815 _1_ MAC  --- 113 ack 40 [0 1000000 8 0] ------- [1:0 0:0 32 0] [53 0] 0 0
r 1.004436401 _0_ MAC  --- 113 ack 40 [0 1000000 8 0] ------- [1:0 0:0 32 0] [53 0] 0 0
s 1.005075228 _0_ MAC  --- 110 tcp 1040 [0 0 8 0] ------- [0:0 1:0 32 0] [54 0] 0 0
r 1.009235815 _1_ MAC  --- 110 tcp 1040 [0 0 8 0] ------- [0:0 1:0 32 0] [54 0] 0 0
s 1.009485815 _1_ MAC  --- 117 ack 40 [0 1000000 8 0] ------- [1:0 0:0 32 0] [54 0] 0 0
r 1.009646401 _0_ MAC  --- 117 ack 40 [0 1000000 8 0] ------- [1:0 0:0 32 0] [54 0] 0 0
s 1.010185228 _0_ MAC  --- 114 tcp 1040 [0 0 8 0] ------- [0:0 1:0 32 0] [55 0] 0 0
r 1.014345814 _1_ MAC  --- 114 tcp 1040 [0 0 8 0] ------- [0:0 1:0 32 0] [55 0] 0 0
s 1.015745228 _0_ MAC  --- 115 tcp 1040 [0 0 8 0] ------- [0:0 1:0 32 0] [56 0] 0 0
s 1.015945814 _1_ MAC  --- 119 ack 40 [0 1000000 8 0] ------- [1:0 0:0 32 0] [55 0] 0 0
r 1.019905814 _1_ MAC  --- 115 tcp 1040 [0 0 8 0] ------- [0:0 1:0 32 0] [56 0] 0 0
s 1.019955814 _1_ MAC  --- 120 ack 40 [0 1000000 8 0] ------- [1:0 0:0 32 0] [56 0] 0 0
r 1.020116400 _0_ MAC  --- 120 ack 40 [0 1000000 8 0] ------- [1:0 0:0 32 0] [56 0] 0 0
s 1.021655228 _0_ MAC  --- 116 tcp 1040 [0 0 8 0] ------- [0:0 1:0 32 0] [57 0] 0 0
r 1.025815814 _1_ MAC  --- 116 tcp 1040 [0 0 8 0] ------- [0:0 1:0 32 0] [57 0] 0 0
s 1.027415228 _0_ MAC  --- 118 tcp 1040 [0 0 8 0] ------- [0:0 1:0 32 0] [58 0] 0 0
s 1.027815814 _1_ MAC  --- 124 ack 40 [0 1000000 8 0] ------- [1:0 0:0 32 0] [57 0] 0 0
r 1.031575814 _1_ MAC  --- 118 tcp 1040 [0 0 8 0] ------- [0:0 1:0 32 0] [58 0] 0 0
s 1.032375814 _1_ MAC  --- 125 ack 40 [0 1000000 8 0] ------- [1:0 0:0 32 0] [58 0] 0 0
r 1.032536399 _0_ MAC  --- 125 ack 40 [0 1000000 8 0] ------- [1:0 0:0 32 0] [58 0] 0 0
s 1.033025228 _0_ MAC  --- 121 tcp 1040 [0 0 8 0] ------- [0:0 1:0 32 0] [59 0] 0 0
r 1.037185813 _1_ MAC  --- 121 tcp 1040 [0 0 8 0] ------- [0:0 1:0 32 0] [59 0] 0 0
s 1.037735813 _1_ MAC  --- 128 ack 40 [0 1000000 8 0] ------- [1:0 0:0 32 0] [59 0] 0 0
r 1.037896398 _0_ MAC  --- 128 ack 40 [0 1000000 8 0] ------- [1:0 0:0 32 0] [59 0] 0 0
s 1.038285228 _0_ MAC  --- 122 tcp 1040 [0 0 8 0] ------- [0:0 1:0 32 0] [60 0] 0 0
r 1.042445813 _1_ MAC  --- 122 tcp 1040 [0 0 8 0] ------- [0:0 1:0 32 0] [60 0] 0 0
s 1.042545228 _0_ MAC  --- 123 tcp 1040 [0 0 8 0] ------- [0:0 1:0 32 0] [61 0] 0 0
s 1.043045813 _1_ MAC  --- 130 ack 40 [0 1000000 8 0] ------- [1:0 0:0 32 0] [60 0] 0 0
r 1.046705813 _1_ MAC  --- 123 tcp 1040 [0 0 8 0] ------- [0:0 1:0 32 0] [61 0] 0 0
s 1.046955228 _0_ MAC  --- 126 tcp 1040 [0 0 8 0] ------- [0:0 1:0 32 0] [62 0] 0 0
s 1.047555813 _1_ MAC  --- 131 ack 40 [0 1000000 8 0] ------- [1:0 0:0 32 0] [61 0] 0 0
r 1.051115813 _1_ MAC  --- 126 tcp 1040 [0 0 8 0] ------- [0:0 1:0 32 0] [62 0] 0 0
s 1.051665813 _1_ MAC  --- 132 ack 40 [0 1000000 8 0] ------- [1:0 0:0 32 0] [62 0] 0 0
r 1.051826397 _0_ MAC  --- 132 ack 40 [0 1000000 8 0] ------- [1:0 0:0 32 0] [62 0] 0 0
s 1.052065228 _0_ MAC  --- 127 tcp 1040 [0 0 8 0] ------- [0:0 1:0 32 0] [63 0] 0 0
r 1.056225812 _1_ MAC  --- 127 tcp 1040 [0 0 8 0] ------- [0:0 1:0 32 0] [63 0] 0 0
s 1.057175812 _1_ MAC  --- 136 ack 40 [0 1000000 8 0] ------- [1:0 0:0 32 0] [63 0] 0 0
r 1.057336396 _0_ MAC  --- 136 ack 40 [0 1000000 8 0] ------- [1:0 0:0 32 0] [63 0] 0 0
s 1.057525228 _0_ MAC  --- 129 tcp 1040 [0 0 8 0] ------- [0:0 1:0 32 0] [64 0] 0 0
r 1.061685812 _1_ MAC  --- 129 tcp 1040 [0 0 8 0] ------- [0:0 1:0 32 0] [64 0] 0 0
s 1.061835812 _1_ MAC  --- 138 ack 40 [0 1000000 8 0] ------- [1:0 0:0 32 0] [64 0] 0 0
r 1.061996396 _0_ MAC  --- 138 ack 40 [0 1000000 8 0] ------- [1:0 0:0 32 0] [64 0] 0 0
s 1.063535228 _0_ MAC  --- 133 tcp 1040 [0 0 8 0] ------- [0:0 1:0 32 0] [65 0] 0 0
r 1.067695812 _1_ MAC  --- 133 tcp 1040 [0 0 8 0] ------- [0:0 1:0 32 0] [65 0] 0 0
s 1.068095812 _1_ MAC  --- 141 ack 40 [0 1000000 8 0] ------- [1:0 0:0 32 0] [65 0] 0 0
r 1.068256395 _0_ MAC  --- 141 ack 40 [0 1000000 8 0] ------- [1:0 0:0 32 0] [65 0] 0 0
s 1.068845228 _0_ MAC  --- 134 tcp 1040 [0 0 8 0] ------- [0:0 1:0 32 0] [66 0] 0 0
r 1.073005812 _1_ MAC  --- 134 tcp 1040 [0 0 8 0] ------- [0:0 1:0 32 0] [66 0] 0 0
s 1.073455228 _0_ MAC  --- 135 tcp 1040 [0 0 8 0] ------- [0:0 1:0 32 0] [67 0] 0 0
s 1.073855812 _1_ MAC  --- 143 ack 40 [0 1000000 8 0] ------- [1:0 0:0 32 0] [66 0] 0 0
r 1.077615811 _1_ MAC  --- 135 tcp 1040 [0 0 8 0] ------- [0:0 1:0 32 0] [67 0] 0 0
s 1.077965811 _1_ MAC  --- 144 ack 40 [0 1000000 8 0] ------- [1:0 0:0 32 0] [67 0] 0 0
r 1.078126394 _0_ MAC  --- 144 ack 40 [0 1000000 8 0] ------- [1:0 0:0 32 0] [67 0] 0 0
s 1.078615228 _0_ MAC  --- 137 tcp 1040 [0 0 8 0] ------- [0:0 1:0 32 0] [68 0] 0 0
r 1.082775811 _1_ MAC  --- 137 tcp 1040 [0 0 8 0] ------- [0:0 1:0 32 0] [68 0] 0 0
s 1.083875811 _1_ MAC  --- 147 ack 40 [0 1000000 8 0] ------- [1:0 0:0 32 0] [68 0] 0 0
r 1.084036393 _0_ MAC  --- 147 ack 40 [0 1000000 8 0] ------- [1:0 0:0 32 0] [68 0] 0 0
s 1.084525228 _0_ MAC  --- 139 tcp 1040 [0 0 8 0] ------- [0:0 1:0 32 0] [69 0] 0 0
r 1.088685811 _1_ MAC  --- 139 tcp 1040 [0 0 8 0] ------- [0:0 1:0 32 0] [69 0] 0 0
s 1.089785811 _1_ MAC  --- 149 ack 40 [0 1000000 8 0] ------- [1:0 0:0 32 0] [69 0] 0 0
r 1.089946393 _0_ MAC  --- 149 ack 40 [0 1000000 8 0] ------- [1:0 0:0 32 0] [69 0] 0 0
s 1.090535228 _0_ MAC  --- 140 tcp 1040 [0 0 8 0] ------- [0:0 1:0 32 0] [70 0] 0 0
r 1.094695810 _1_ MAC  --- 140 tcp 1040 [0 0 8 0] ------- [0:0 1:0 32 0] [70 0] 0 0
s 1.095095810 _1_ MAC  --- 151 ack 40 [0 1000000 8 0] ------- [1:0 0:0 32 0] [70 0] 0 0
r 1.095256392 _0_ MAC  --- 151 ack 40 [0 1000000 8 0] ------- [1:0 0:0 32 0] [70 0] 0 0
s 1.095795228 _0_ MAC  --- 142 tcp 1040 [0 0 8 0] ------- [0:0 1:0 32 0] [71 0] 0 0
r 1.099955810 _1_ MAC  --- 142 tcp 1040 [0 0 8 0] ------- [0:0 1:0 32 0] [71 0] 0 0
s 1.100055810 _1_ MAC  --- 153 ack 40 [0 1000000 8 0] ------- [1:0 0:0 32 0] [71 0] 0 0
s 1.100205228 _0_ MAC  --- 145 tcp 1040 [0 0 8 0] ------- [0:0 1:0 32 0] [72 0] 0 0
D 1.104365810 _1_ MAC  ERR 145 tcp 1040 [0 0 8 0] ------- [0:0 1:0 32 0] [72 0] 0 0
s 1.106115228 _0_ MAC  --- 146 tcp 1040 [0 0 8 0] ------- [0:0 1:0 32 0] [73 0] 0 0
r 1.110275810 _1_ MAC  --- 146 tcp 1040 [0 0 8 0] ------- [0:0 1:0 32 0] [73 0] 0 0
s 1.110425810 _1_ MAC  --- 154 ack 40 [0 1000000 8 0] ------- [1:0 0:0 32 0] [71 0] 0 0
r 1.110586391 _0_ MAC  --- 154 ack 40 [0 1000000 8 0] ------- [1:0 0:0 32 0] [71 0] 0 0
s 1.112075228 _0_ MAC  --- 148 tcp 1040 [0 0 8 0] ------- [0:0 1:0 32 0] [74 0] 0 0
r 1.116235809 _1_ MAC  --- 148 tcp 1040 [0 0 8 0] ------- [0:0 1:0 32 0] [74 0] 0 0
s 1.116435809 _1_ MAC  --- 157 ack 40 [0 1000000 8 0] ------- [1:0 0:0 32 0] [71 0] 0 0
r 1.116596390 _0_ MAC  --- 157 ack 40 [0 1000000 8 0] ------- [1:0 0:0 32 0] [71 0] 0 0
s 1.117985228 _0_ MAC  --- 150 tcp 1040 [0 0 8 0] ------- [0:0 1:0 32 0] [75 0] 0 0
r 1.122145809 _1_ MAC  --- 150 tcp 1040 [0 0 8 0] ------- [0:0 1:0 32 0] [75 0] 0 0
s 1.122895228 _0_ MAC  --- 152 tcp 1040 [0 0 8 0] ------- [0:0 1:0 32 0] [76 0] 0 0
s 1.123195809 _1_ MAC  --- 159 ack 40 [0 1000000 8 0] ------- [1:0 0:0 32 0] [71 0] 0 0
r 1.127055809 _1_ MAC  --- 152 tcp 1040 [0 0 8 0] ------- [0:0 1:0 32 0] [76 0] 0 0
s 1.127555809 _1_ MAC  --- 160 ack 40 [0 1000000 8 0] ------- [1:0 0:0 32 0] [71 0] 0 0
r 1.127716389 _0_ MAC  --- 160 ack 40 [0 1000000 8 0] ------- [1:0 0:0 32 0] [71 0] 0 0
s 1.128655228 _0_ MAC  --- 155 tcp 1040 [0 0 8 0] ------- [0:0 1:0 32 0] [77 0] 0 0
r 1.132815809 _1_ MAC  --- 155 tcp 1040 [0 0 8 0] ------- [0:0 1:0 32 0] [77 0] 0 0
s 1.133865809 _1_ MAC  --- 162 ack 40 [0 1000000 8 0] ------- [1:0 0:0 32 0] [71 0] 0 0
r 1.134026388 _0_ MAC  --- 162 ack 40 [0 1000000 8 0] ------- [1:0 0:0 32 0] [71 0] 0 0
s 1.134315228 _0_ MAC  --- 156 tcp 1040 [0 0 8 0] ------- [0:0 1:0 32 0] [78 0] 0 0
r 1.138475808 _1_ MAC  --- 156 tcp 1040 [0 0 8 0] ------- [0:0 1:0 32 0] [78 0] 0 0
s 1.140075808 _1_ MAC  --- 164 ack 40 [0 1000000 8 0] ------- [1:0 0:0 32 0] [71 0] 0 0
r 1.140236388 _0_ MAC  --- 164 ack 40 [0 1000000 8 0] ------- [1:0 0:0 32 0] [71 0] 0 0
s 1.140275228 _0_ MAC  --- 158 tcp 1040 [0 0 8 0] ------- [0:0 1:0 32 0] [79 0] 0 0
r 1.144435808 _1_ MAC  --- 158 tcp 1040 [0 0 8 0] ------- [0:0 1:0 32 0] [79 0] 0 0
s 1.144535808 _1_ MAC  --- 165 ack 40 [0 1000000 8 0] ------- [1:0 0:0 32 0] [71 0] 0 0
r 1.144696387 _0_ MAC  --- 165 ack 40 [0 1000000 8 0] ------- [1:0 0:0 32 0] [71 0] 0 0
s 1.145385228 _0_ MAC  --- 161 tcp 1040 [0 0 8 0] ------- [0:0 1:0 32 0] [80 0] 0 0
r 1.149545808 _1_ MAC  --- 161 tcp 1040 [0 0 8 0] ------- [0:0 1:0 32 0] [80 0] 0 0
s 1.149695228 _0_ MAC  --- 163 tcp 1040 [0 0 8 0] ------- [0:0 1:0 32 0] [72 0] 0 0
s 1.151395808 _1_ MAC  --- 166 ack 40 [0 1000000 8 0] ------- [1:0 0:0 32 0] [71 0] 0 0
r 1.153855807 _1_ MAC  --- 163 tcp 1040 [0 0 8 0] ------- [0:0 1:0 32 0] [72 0] 0 0
s 1.154905807 _1_ MAC  --- 167 ack 40 [0 1000000 8 0] ------- [1:0 0:0 32 0] [80 0] 0 0
r 1.155066386 _0_ MAC  --- 167 ack 40 [0 1000000 8 0] ------- [1:0 0:0 32 0] [80 0] 0 0
s 1.156966386 _0_ MAC  --- 168 tcp 1040 [0 0 8 0] ------- [0:0 1:0 32 0] [81 0] 0 0
r 1.161126965 _1_ MAC  --- 168 tcp 1040 [0 0 8 0] ------- [0:0 1:0 32 0] [81 0] 0 0
s 1.161776386 _0_ MAC  --- 169 tcp 1040 [0 0 8 0] ------- [0:0 1:0 32 0] [82 0] 0 0
s 1.162976965 _1_ MAC  --- 170 ack 40 [0 1000000 8 0] ------- [1:0 0:0 32 0] [81 0] 0 0
r 1.165936965 _1_ MAC  --- 169 tcp 1040 [0 0 8 0] ------- [0:0 1:0 32 0] [82 0] 0 0
s 1.166886965 _1_ MAC  --- 171 ack 40 [0 1000000 8 0] ------- [1:0 0:0 32 0] [82 0] 0 0
r 1.167047543 _0_ MAC  --- 171 ack 40 [0 1000000 8 0] ------- [1:0 0:0 32 0] [82 0] 0 0
s 1.168097543 _0_ MAC  --- 172 tcp 1040 [0 0 8 0] ------- [0:0 1:0 32 0] [83 0] 0 0
r 1.172258121 _1_ MAC  --- 172 tcp 1040 [0 0 8 0] ------- [0:0 1:0 32 0] [83 0] 0 0
s 1.173107543 _0_ MAC  --- 173 tcp 1040 [0 0 8 0] ------- [0:0 1:0 32 0] [84 0] 0 0
s 1.173258121 _1_ MAC  --- 175 ack 40 [0 1000000 8 0] ------- [1:0 0:0 32 0] [83 0] 0 0
r 1.177268121 _1_ MAC  --- 173 tcp 1040 [0 0 8 0] ------- [0:0 1:0 32 0] [84 0] 0 0
s 1.177568121 _1_ MAC  --- 176 ack 40 [0 1000000 8 0] ------- [1:0 0:0 32 0] [84 0] 0 0
s 1.177667543 _0_ MAC  --- 174 tcp 1040 [0 0 8 0] ------- [0:0 1:0 32 0] [85 0] 0 0
D 1.181828121 _1_ MAC  ERR 174 tcp 1040 [0 0 8 0] ------- [0:0 1:0 32 0] [85 0] 0 0
s 1.367147543 _0_ MAC  --- 177 tcp 1040 [0 0 8 0] ------- [0:0 1:0 32 0] [83 0] 0 0
r 1.371308111 _1_ MAC  --- 177 tcp 1040 [0 0 8 0] ------- [0:0 1:0 32 0] [83 0] 0 0
s 1.371708111 _1_ MAC  --- 178 ack 40 [0 1000000 8 0] ------- [1:0 0:0 32 0] [84 0] 0 0
r 1.371868679 _0_ MAC  --- 178 ack 40 [0 1000000 8 0] ------- [1:0 0:0 32 0] [84 0] 0 0
s 1.372268679 _0_ MAC  --- 179 tcp 1040 [0 0 8 0] ------- [0:0 1:0 32 0] [85 0] 0 0
r 1.376429247 _1_ MAC  --- 179 tcp 1040 [0 0 8 0] ------- [0:0 1:0 32 0] [85 0] 0 0
s 1.376828679 _0_ MAC  --- 180 tcp 1040 [0 0 8 0] ------- [0:0 1:0 32 0] [86 0] 0 0
s 1.377529247 _1_ MAC  --- 181 ack 40 [0 1000000 8 0] ------- [1:0 0:0 32 0] [85 0] 0 0
r 1.380989247 _1_ MAC  --- 180 tcp 1040 [0 0 8 0] ------- [0:0 1:0 32 0] [86 0] 0 0
s 1.382889247 _1_ MAC  --- 182 ack 40 [0 1000000 8 0] ------- [1:0 0:0 32 0] [86 0] 0 0
r 1.383049815 _0_ MAC  --- 182 ack 40 [0 1000000 8 0] ------- [1:0 0:0 32 0] [86 0] 0 0
s 1.383149815 _0_ MAC  --- 183 tcp 1040 [0 0 8 0] ------- [0:0 1:0 32 0] [87 0] 0 0
r 1.387310382 _1_ MAC  --- 183 tcp 1040 [0 0 8 0] ------- [0:0 1:0 32 0] [87 0] 0 0
s 1.388309815 _0_ MAC  --- 184 tcp 1040 [0 0 8 0] ------- [0:0 1:0 32 0] [88 0] 0 0
s 1.388460382 _1_ MAC  --- 185 ack 40 [0 1000000 8 0] ------- [1:0 0:0 32 0] [87 0] 0 0
r 1.392470382 _1_ MAC  --- 184 tcp 1040 [0 0 8 0] ------- [0:0 1:0 32 0] [88 0] 0 0
s 1.392770382 _1_ MAC  --- 186 ack 40 [0 1000000 8 0] ------- [1:0 0:0 32 0] [88 0] 0 0
r 1.392930949 _0_ MAC  --- 186 ack 40 [0 1000000 8 0] ------- [1:0 0:0 32 0] [88 0] 0 0
s 1.393330949 _0_ MAC  --- 187 tcp 1040 [0 0 8 0] ------- [0:0 1:0 32 0] [89 0] 0 0
r 1.397491516 _1_ MAC  --- 187 tcp 1040 [0 0 8 0] ------- [0:0 1:0 32 0] [89 0] 0 0
s 1.398090949 _0_ MAC  --- 188 tcp 1040 [0 0 8 0] ------- [0:0 1:0 32 0] [90 0] 0 0
s 1.398791516 _1_ MAC  --- 189 ack 40 [0 1000000 8 0] ------- [1:0 0:0 32 0] [89 0] 0 0
r 1.402251516 _1_ MAC  --- 188 tcp 1040 [0 0 8 0] ------- [0:0 1:0 32 0] [90 0] 0 0
s 1.404051516 _1_ MAC  --- 190 ack 40 [0 1000000 8 0] ------- [1:0 0:0 32 0] [90 0] 0 0
r 1.404212082 _0_ MAC  --- 190 ack 40 [0 1000000 8 0] ------- [1:0 0:0 32 0] [90 0] 0 0
s 1.405412082 _0_ MAC  --- 191 tcp 1040 [0 0 8 0] ------- [0:0 1:0 32 0] [91 0] 0 0