M 0.00000 0 (15.00, 15.00, 0.00), (50.00, 50.00), 10.00
M 0.00000 1 (150.00, 150.00, 0.00), (150.00, 150.00), 0.00
M 0.00000 2 (200.00, 200.00, 0.00), (180.00, 180.00), 10.00
s 0.500355000 _2_ MAC  --- 0 ARP 86 [0 ffffffff 2 806] ------- [REQUEST 2/2 0/1]
r 0.501043219 _1_ MAC  --- 0 ARP 28 [0 ffffffff 2 806] ------- [REQUEST 2/2 0/1]
s 0.501098219 _1_ MAC  --- 0 RTS 44 [52e 2 1 0] 
r 0.501450438 _2_ MAC  --- 0 RTS 44 [52e 2 1 0] 
s 0.501460438 _2_ MAC  --- 0 CTS 38 [3f4 1 0 0] 
r 0.501764657 _1_ MAC  --- 0 CTS 38 [3f4 1 0 0] 
s 0.501774657 _1_ MAC  --- 0 ARP 86 [13a 2 1 806] ------- [REPLY 1/1 2/2]
r 0.502462876 _2_ MAC  --- 0 ARP 28 [13a 2 1 806] ------- [REPLY 1/1 2/2]
s 0.502472876 _2_ MAC  --- 0 ACK 38 [0 1 0 0] 
r 0.502777095 _1_ MAC  --- 0 ACK 38 [0 1 0 0] 
s 0.503146876 _2_ MAC  --- 0 RTS 44 [58e 1 2 0] 
r 0.503499095 _1_ MAC  --- 0 RTS 44 [58e 1 2 0] 
s 0.503509095 _1_ MAC  --- 0 CTS 38 [454 2 0 0] 
r 0.503813314 _2_ MAC  --- 0 CTS 38 [454 2 0 0] 
s 0.503823314 _2_ MAC  --- 1 tcp 98 [13a 1 2 800] ------- [2:0 1:1 32 0] [0 0] 0 0
r 0.504607533 _1_ MAC  --- 1 tcp 40 [13a 1 2 800] ------- [2:0 1:1 32 0] [0 0] 1 0
s 0.504617533 _1_ MAC  --- 0 ACK 38 [0 2 0 0] 
r 0.504921752 _2_ MAC  --- 0 ACK 38 [0 2 0 0] 
s 0.505171533 _1_ MAC  --- 0 RTS 44 [58e 2 1 0] 
r 0.505523752 _2_ MAC  --- 0 RTS 44 [58e 2 1 0] 
s 0.505533752 _2_ MAC  --- 0 CTS 38 [454 1 0 0] 
r 0.505837970 _1_ MAC  --- 0 CTS 38 [454 1 0 0] 
s 0.505847970 _1_ MAC  --- 2 ack 98 [13a 2 1 800] ------- [1:1 2:0 32 0] [0 0] 0 0
r 0.506632189 _2_ MAC  --- 2 ack 40 [13a 2 1 800] ------- [1:1 2:0 32 0] [0 0] 1 0
s 0.506642189 _2_ MAC  --- 0 ACK 38 [0 1 0 0] 
r 0.506946408 _1_ MAC  --- 0 ACK 38 [0 1 0 0] 
s 0.507056189 _2_ MAC  --- 0 RTS 44 [24ce 1 2 0] 
r 0.507408408 _1_ MAC  --- 0 RTS 44 [24ce 1 2 0] 
s 0.507418408 _1_ MAC  --- 0 CTS 38 [2394 2 0 0] 
r 0.507722627 _2_ MAC  --- 0 CTS 38 [2394 2 0 0] 
s 0.507732627 _2_ MAC  --- 3 tcp 1098 [13a 1 2 800] ------- [2:0 1:1 32 0] [1 0] 0 0
r 0.516516846 _1_ MAC  --- 3 tcp 1040 [13a 1 2 800] ------- [2:0 1:1 32 0] [1 0] 1 0
s 0.516526846 _1_ MAC  --- 0 ACK 38 [0 2 0 0] 
r 0.516831064 _2_ MAC  --- 0 ACK 38 [0 2 0 0] 
s 0.517051465 _0_ MAC  --- 0 ARP 86 [0 ffffffff 0 806] ------- [REQUEST 0/0 0/1]
r 0.517740084 _1_ MAC  --- 0 ARP 28 [0 ffffffff 0 806] ------- [REQUEST 0/0 0/1]
s 0.517950084 _1_ MAC  --- 0 RTS 44 [58e 2 1 0] 
r 0.518302303 _2_ MAC  --- 0 RTS 44 [58e 2 1 0] 
s 0.518312303 _2_ MAC  --- 0 CTS 38 [454 1 0 0] 
r 0.518616521 _1_ MAC  --- 0 CTS 38 [454 1 0 0] 
s 0.518626521 _1_ MAC  --- 5 ack 98 [13a 2 1 800] ------- [1:1 2:0 32 0] [1 0] 0 0
r 0.519410740 _2_ MAC  --- 5 ack 40 [13a 2 1 800] ------- [1:1 2:0 32 0] [1 0] 1 0
s 0.519420740 _2_ MAC  --- 0 ACK 38 [0 1 0 0] 
r 0.519724958 _1_ MAC  --- 0 ACK 38 [0 1 0 0] 
s 0.519814958 _1_ MAC  --- 0 RTS 44 [52e 0 1 0] 
r 0.520167577 _0_ MAC  --- 0 RTS 44 [52e 0 1 0] 
s 0.520177577 _0_ MAC  --- 0 CTS 38 [3f4 1 0 0] 
r 0.520482196 _1_ MAC  --- 0 CTS 38 [3f4 1 0 0] 
s 0.520492196 _1_ MAC  --- 0 ARP 86 [13a 0 1 806] ------- [REPLY 1/1 0/0]
r 0.521180815 _0_ MAC  --- 0 ARP 28 [13a 0 1 806] ------- [REPLY 1/1 0/0]
s 0.521190815 _0_ MAC  --- 0 ACK 38 [0 1 0 0] 
r 0.521495434 _1_ MAC  --- 0 ACK 38 [0 1 0 0] 
s 0.521624815 _0_ MAC  --- 0 RTS 44 [58e 1 0 0] 
r 0.521977434 _1_ MAC  --- 0 RTS 44 [58e 1 0 0] 
s 0.521987434 _1_ MAC  --- 0 CTS 38 [454 0 0 0] 
r 0.522292053 _0_ MAC  --- 0 CTS 38 [454 0 0 0] 
s 0.522302053 _0_ MAC  --- 0 tcp 98 [13a 1 0 800] ------- [0:0 1:0 32 0] [0 0] 0 0
r 0.523086672 _1_ MAC  --- 0 tcp 40 [13a 1 0 800] ------- [0:0 1:0 32 0] [0 0] 1 0
s 0.523096672 _1_ MAC  --- 0 ACK 38 [0 0 0 0] 
r 0.523401291 _0_ MAC  --- 0 ACK 38 [0 0 0 0] 
s 0.523560890 _2_ MAC  --- 0 RTS 44 [24ce 1 2 0] 
r 0.523913109 _1_ MAC  --- 0 RTS 44 [24ce 1 2 0] 
s 0.523923109 _1_ MAC  --- 0 CTS 38 [2394 2 0 0] 
r 0.524227327 _2_ MAC  --- 0 CTS 38 [2394 2 0 0] 
s 0.524237327 _2_ MAC  --- 4 tcp 1098 [13a 1 2 800] ------- [2:0 1:1 32 0] [2 0] 0 0
r 0.533021545 _1_ MAC  --- 4 tcp 1040 [13a 1 2 800] ------- [2:0 1:1 32 0] [2 0] 1 0
s 0.533031545 _1_ MAC  --- 0 ACK 38 [0 2 0 0] 
r 0.533335763 _2_ MAC  --- 0 ACK 38 [0 2 0 0] 
s 0.533745763 _2_ MAC  --- 0 RTS 44 [24ce 1 2 0] 
r 0.534097981 _1_ MAC  --- 0 RTS 44 [24ce 1 2 0] 
s 0.534107981 _1_ MAC  --- 0 CTS 38 [2394 2 0 0] 
r 0.534412199 _2_ MAC  --- 0 CTS 38 [2394 2 0 0] 
s 0.534422199 _2_ MAC  --- 6 tcp 1098 [13a 1 2 800] ------- [2:0 1:1 32 0] [3 0] 0 0
r 0.543206417 _1_ MAC  --- 6 tcp 1040 [13a 1 2 800] ------- [2:0 1:1 32 0] [3 0] 1 0
s 0.543216417 _1_ MAC  --- 0 ACK 38 [0 2 0 0] 
r 0.543520634 _2_ MAC  --- 0 ACK 38 [0 2 0 0] 
s 0.543590417 _1_ MAC  --- 0 RTS 44 [58e 0 1 0] 
r 0.543943035 _0_ MAC  --- 0 RTS 44 [58e 0 1 0] 
s 0.543953035 _0_ MAC  --- 0 CTS 38 [454 1 0 0] 
r 0.544257653 _1_ MAC  --- 0 CTS 38 [454 1 0 0] 
s 0.544267653 _1_ MAC  --- 8 ack 98 [13a 0 1 800] ------- [1:0 0:0 32 0] [0 0] 0 0
r 0.545052272 _0_ MAC  --- 8 ack 40 [13a 0 1 800] ------- [1:0 0:0 32 0] [0 0] 1 0
s 0.545062272 _0_ MAC  --- 0 ACK 38 [0 1 0 0] 
r 0.545366890 _1_ MAC  --- 0 ACK 38 [0 1 0 0] 
s 0.545576272 _0_ MAC  --- 0 RTS 44 [24ce 1 0 0] 
r 0.545928890 _1_ MAC  --- 0 RTS 44 [24ce 1 0 0] 
s 0.545938890 _1_ MAC  --- 0 CTS 38 [2394 0 0 0] 
r 0.546243508 _0_ MAC  --- 0 CTS 38 [2394 0 0 0] 
s 0.546253508 _0_ MAC  --- 11 tcp 1098 [13a 1 0 800] ------- [0:0 1:0 32 0] [1 0] 0 0
r 0.555038126 _1_ MAC  --- 11 tcp 1040 [13a 1 0 800] ------- [0:0 1:0 32 0] [1 0] 1 0
s 0.555048126 _1_ MAC  --- 0 ACK 38 [0 0 0 0] 
r 0.555352744 _0_ MAC  --- 0 ACK 38 [0 0 0 0] 
s 0.555692344 _2_ MAC  --- 0 RTS 44 [24ce 1 2 0] 
r 0.556044561 _1_ MAC  --- 0 RTS 44 [24ce 1 2 0] 
s 0.556054561 _1_ MAC  --- 0 CTS 38 [2394 2 0 0] 
r 0.556358778 _2_ MAC  --- 0 CTS 38 [2394 2 0 0] 
s 0.556368778 _2_ MAC  --- 7 tcp 1098 [13a 1 2 800] ------- [2:0 1:1 32 0] [4 0] 0 0
r 0.565152995 _1_ MAC  --- 7 tcp 1040 [13a 1 2 800] ------- [2:0 1:1 32 0] [4 0] 1 0
s 0.565162995 _1_ MAC  --- 0 ACK 38 [0 2 0 0] 
r 0.565467212 _2_ MAC  --- 0 ACK 38 [0 2 0 0] 
s 0.565576995 _1_ MAC  --- 0 RTS 44 [58e 2 1 0] 
r 0.565929212 _2_ MAC  --- 0 RTS 44 [58e 2 1 0] 
s 0.565939212 _2_ MAC  --- 0 CTS 38 [454 1 0 0] 
r 0.566243429 _1_ MAC  --- 0 CTS 38 [454 1 0 0] 
s 0.566253429 _1_ MAC  --- 9 ack 98 [13a 2 1 800] ------- [1:1 2:0 32 0] [2 0] 0 0
r 0.567037646 _2_ MAC  --- 9 ack 40 [13a 2 1 800] ------- [1:1 2:0 32 0] [2 0] 1 0
s 0.567047646 _2_ MAC  --- 0 ACK 38 [0 1 0 0] 
r 0.567351862 _1_ MAC  --- 0 ACK 38 [0 1 0 0] 
s 0.567601862 _1_ MAC  --- 0 RTS 44 [58e 2 1 0] 
r 0.567954079 _2_ MAC  --- 0 RTS 44 [58e 2 1 0] 
s 0.567964079 _2_ MAC  --- 0 CTS 38 [454 1 0 0] 
r 0.568268296 _1_ MAC  --- 0 CTS 38 [454 1 0 0] 
s 0.568278296 _1_ MAC  --- 10 ack 98 [13a 2 1 800] ------- [1:1 2:0 32 0] [3 0] 0 0
r 0.569062513 _2_ MAC  --- 10 ack 40 [13a 2 1 800] ------- [1:1 2:0 32 0] [3 0] 1 0
s 0.569072513 _2_ MAC  --- 0 ACK 38 [0 1 0 0] 
r 0.569376730 _1_ MAC  --- 0 ACK 38 [0 1 0 0] 
s 0.569506513 _2_ MAC  --- 0 RTS 44 [24ce 1 2 0] 
r 0.569858730 _1_ MAC  --- 0 RTS 44 [24ce 1 2 0] 
s 0.569868730 _1_ MAC  --- 0 CTS 38 [2394 2 0 0] 
r 0.570172946 _2_ MAC  --- 0 CTS 38 [2394 2 0 0] 
s 0.570182946 _2_ MAC  --- 15 tcp 1098 [13a 1 2 800] ------- [2:0 1:1 32 0] [5 0] 0 0
r 0.578967163 _1_ MAC  --- 15 tcp 1040 [13a 1 2 800] ------- [2:0 1:1 32 0] [5 0] 1 0
s 0.578977163 _1_ MAC  --- 0 ACK 38 [0 2 0 0] 
r 0.579281379 _2_ MAC  --- 0 ACK 38 [0 2 0 0] 
s 0.579351379 _2_ MAC  --- 0 RTS 44 [24ce 1 2 0] 
r 0.579703596 _1_ MAC  --- 0 RTS 44 [24ce 1 2 0] 
s 0.579713596 _1_ MAC  --- 0 CTS 38 [2394 2 0 0] 
r 0.580017812 _2_ MAC  --- 0 CTS 38 [2394 2 0 0] 
s 0.580027812 _2_ MAC  --- 16 tcp 1098 [13a 1 2 800] ------- [2:0 1:1 32 0] [6 0] 0 0
r 0.588812028 _1_ MAC  --- 16 tcp 1040 [13a 1 2 800] ------- [2:0 1:1 32 0] [6 0] 1 0
s 0.588822028 _1_ MAC  --- 0 ACK 38 [0 2 0 0] 
r 0.589126245 _2_ MAC  --- 0 ACK 38 [0 2 0 0] 
s 0.589286646 _0_ MAC  --- 0 RTS 44 [24ce 1 0 0] 
r 0.589639262 _1_ MAC  --- 0 RTS 44 [24ce 1 0 0] 
s 0.589649262 _1_ MAC  --- 0 CTS 38 [2394 0 0 0] 
r 0.589953879 _0_ MAC  --- 0 CTS 38 [2394 0 0 0] 
s 0.589963879 _0_ MAC  --- 12 tcp 1098 [13a 1 0 800] ------- [0:0 1:0 32 0] [2 0] 0 0
r 0.598748496 _1_ MAC  --- 12 tcp 1040 [13a 1 0 800] ------- [0:0 1:0 32 0] [2 0] 1 0
s 0.598758496 _1_ MAC  --- 0 ACK 38 [0 0 0 0] 
r 0.599063112 _0_ MAC  --- 0 ACK 38 [0 0 0 0] 
s 0.599152496 _1_ MAC  --- 0 RTS 44 [58e 0 1 0] 
r 0.599505112 _0_ MAC  --- 0 RTS 44 [58e 0 1 0] 
s 0.599515112 _0_ MAC  --- 0 CTS 38 [454 1 0 0] 
r 0.599819729 _1_ MAC  --- 0 CTS 38 [454 1 0 0] 
s 0.599829729 _1_ MAC  --- 13 ack 98 [13a 0 1 800] ------- [1:0 0:0 32 0] [1 0] 0 0
r 0.600614345 _0_ MAC  --- 13 ack 40 [13a 0 1 800] ------- [1:0 0:0 32 0] [1 0] 1 0
s 0.600624345 _0_ MAC  --- 0 ACK 38 [0 1 0 0] 
r 0.600928961 _1_ MAC  --- 0 ACK 38 [0 1 0 0] 
s 0.601099177 _2_ MAC  --- 0 RTS 44 [24ce 1 2 0] 
r 0.601451393 _1_ MAC  --- 0 RTS 44 [24ce 1 2 0] 
s 0.601461393 _1_ MAC  --- 0 CTS 38 [2394 2 0 0] 
r 0.601765608 _2_ MAC  --- 0 CTS 38 [2394 2 0 0] 
s 0.601775608 _2_ MAC  --- 17 tcp 1098 [13a 1 2 800] ------- [2:0 1:1 32 0] [7 0] 0 0
r 0.610559824 _1_ MAC  --- 17 tcp 1040 [13a 1 2 800] ------- [2:0 1:1 32 0] [7 0] 1 0
s 0.610569824 _1_ MAC  --- 0 ACK 38 [0 2 0 0] 
r 0.610874039 _2_ MAC  --- 0 ACK 38 [0 2 0 0] 
s 0.610983824 _1_ MAC  --- 0 RTS 44 [58e 2 1 0] 
r 0.611336039 _2_ MAC  --- 0 RTS 44 [58e 2 1 0] 
s 0.611346039 _2_ MAC  --- 0 CTS 38 [454 1 0 0] 
r 0.611650255 _1_ MAC  --- 0 CTS 38 [454 1 0 0] 
s 0.611660255 _1_ MAC  --- 14 ack 98 [13a 2 1 800] ------- [1:1 2:0 32 0] [4 0] 0 0
r 0.612444470 _2_ MAC  --- 14 ack 40 [13a 2 1 800] ------- [1:1 2:0 32 0] [4 0] 1 0
s 0.612454470 _2_ MAC  --- 0 ACK 38 [0 1 0 0] 
r 0.612758685 _1_ MAC  --- 0 ACK 38 [0 1 0 0] 
s 0.613069301 _0_ MAC  --- 0 RTS 44 [24ce 1 0 0] 
r 0.613421917 _1_ MAC  --- 0 RTS 44 [24ce 1 0 0] 
s 0.613431917 _1_ MAC  --- 0 CTS 38 [2394 0 0 0] 
r 0.613736533 _0_ MAC  --- 0 CTS 38 [2394 0 0 0] 
s 0.613746533 _0_ MAC  --- 22 tcp 1098 [13a 1 0 800] ------- [0:0 1:0 32 0] [3 0] 0 0
r 0.622531149 _1_ MAC  --- 22 tcp 1040 [13a 1 0 800] ------- [0:0 1:0 32 0] [3 0] 1 0
s 0.622541149 _1_ MAC  --- 0 ACK 38 [0 0 0 0] 
r 0.622845765 _0_ MAC  --- 0 ACK 38 [0 0 0 0] 
s 0.623035149 _1_ MAC  --- 0 RTS 44 [58e 2 1 0] 
r 0.623387364 _2_ MAC  --- 0 RTS 44 [58e 2 1 0] 
s 0.623397364 _2_ MAC  --- 0 CTS 38 [454 1 0 0] 
r 0.623701579 _1_ MAC  --- 0 CTS 38 [454 1 0 0] 
s 0.623711579 _1_ MAC  --- 19 ack 98 [13a 2 1 800] ------- [1:1 2:0 32 0] [5 0] 0 0
r 0.624495794 _2_ MAC  --- 19 ack 40 [13a 2 1 800] ------- [1:1 2:0 32 0] [5 0] 1 0
s 0.624505794 _2_ MAC  --- 0 ACK 38 [0 1 0 0] 
r 0.624810009 _1_ MAC  --- 0 ACK 38 [0 1 0 0] 
s 0.625019794 _2_ MAC  --- 0 RTS 44 [24ce 1 2 0] 
r 0.625372009 _1_ MAC  --- 0 RTS 44 [24ce 1 2 0] 
s 0.625382009 _1_ MAC  --- 0 CTS 38 [2394 2 0 0] 
r 0.625686224 _2_ MAC  --- 0 CTS 38 [2394 2 0 0] 
s 0.625696224 _2_ MAC  --- 18 tcp 1098 [13a 1 2 800] ------- [2:0 1:1 32 0] [8 0] 0 0
r 0.634480438 _1_ MAC  --- 18 tcp 1040 [13a 1 2 800] ------- [2:0 1:1 32 0] [8 0] 1 0
s 0.634490438 _1_ MAC  --- 0 ACK 38 [0 2 0 0] 
r 0.634794653 _2_ MAC  --- 0 ACK 38 [0 2 0 0] 
s 0.634884653 _2_ MAC  --- 0 RTS 44 [24ce 1 2 0] 
r 0.635236868 _1_ MAC  --- 0 RTS 44 [24ce 1 2 0] 
s 0.635246868 _1_ MAC  --- 0 CTS 38 [2394 2 0 0] 
r 0.635551082 _2_ MAC  --- 0 CTS 38 [2394 2 0 0] 
s 0.635561082 _2_ MAC  --- 25 tcp 1098 [13a 1 2 800] ------- [2:0 1:1 32 0] [9 0] 0 0
r 0.644345297 _1_ MAC  --- 25 tcp 1040 [13a 1 2 800] ------- [2:0 1:1 32 0] [9 0] 1 0
s 0.644355297 _1_ MAC  --- 0 ACK 38 [0 2 0 0] 
r 0.644659511 _2_ MAC  --- 0 ACK 38 [0 2 0 0] 
s 0.644889297 _1_ MAC  --- 0 RTS 44 [58e 2 1 0] 
r 0.645241511 _2_ MAC  --- 0 RTS 44 [58e 2 1 0] 
s 0.645251511 _2_ MAC  --- 0 CTS 38 [454 1 0 0] 
r 0.645555725 _1_ MAC  --- 0 CTS 38 [454 1 0 0] 
s 0.645565725 _1_ MAC  --- 20 ack 98 [13a 2 1 800] ------- [1:1 2:0 32 0] [6 0] 0 0
r 0.646349939 _2_ MAC  --- 20 ack 40 [13a 2 1 800] ------- [1:1 2:0 32 0] [6 0] 1 0
s 0.646359939 _2_ MAC  --- 0 ACK 38 [0 1 0 0] 
r 0.646664153 _1_ MAC  --- 0 ACK 38 [0 1 0 0] 
s 0.646794768 _0_ MAC  --- 0 RTS 44 [24ce 1 0 0] 
r 0.647147383 _1_ MAC  --- 0 RTS 44 [24ce 1 0 0] 
s 0.647157383 _1_ MAC  --- 0 CTS 38 [2394 0 0 0] 
r 0.647461998 _0_ MAC  --- 0 CTS 38 [2394 0 0 0] 
s 0.647471998 _0_ MAC  --- 23 tcp 1098 [13a 1 0 800] ------- [0:0 1:0 32 0] [4 0] 0 0
r 0.656256613 _1_ MAC  --- 23 tcp 1040 [13a 1 0 800] ------- [0:0 1:0 32 0] [4 0] 1 0
s 0.656266613 _1_ MAC  --- 0 ACK 38 [0 0 0 0] 
r 0.656571227 _0_ MAC  --- 0 ACK 38 [0 0 0 0] 
s 0.656680827 _2_ MAC  --- 0 RTS 44 [24ce 1 2 0] 
r 0.657033041 _1_ MAC  --- 0 RTS 44 [24ce 1 2 0] 
s 0.657043041 _1_ MAC  --- 0 CTS 38 [2394 2 0 0] 
r 0.657347254 _2_ MAC  --- 0 CTS 38 [2394 2 0 0] 
s 0.657357254 _2_ MAC  --- 26 tcp 1098 [13a 1 2 800] ------- [2:0 1:1 32 0] [10 0] 0 0
r 0.666141468 _1_ MAC  --- 26 tcp 1040 [13a 1 2 800] ------- [2:0 1:1 32 0] [10 0] 1 0
s 0.666151468 _1_ MAC  --- 0 ACK 38 [0 2 0 0] 
r 0.666455682 _2_ MAC  --- 0 ACK 38 [0 2 0 0] 
s 0.666585682 _2_ MAC  --- 0 RTS 44 [24ce 1 2 0] 
r 0.666937895 _1_ MAC  --- 0 RTS 44 [24ce 1 2 0] 
s 0.666947895 _1_ MAC  --- 0 CTS 38 [2394 2 0 0] 
r 0.667252109 _2_ MAC  --- 0 CTS 38 [2394 2 0 0] 
s 0.667262109 _2_ MAC  --- 28 tcp 1098 [13a 1 2 800] ------- [2:0 1:1 32 0] [11 0] 0 0
r 0.676046322 _1_ MAC  --- 28 tcp 1040 [13a 1 2 800] ------- [2:0 1:1 32 0] [11 0] 1 0
s 0.676056322 _1_ MAC  --- 0 ACK 38 [0 2 0 0] 
r 0.676360535 _2_ MAC  --- 0 ACK 38 [0 2 0 0] 
s 0.676550322 _1_ MAC  --- 0 RTS 44 [58e 0 1 0] 
r 0.676902936 _0_ MAC  --- 0 RTS 44 [58e 0 1 0] 
s 0.676912936 _0_ MAC  --- 0 CTS 38 [454 1 0 0] 
r 0.677217550 _1_ MAC  --- 0 CTS 38 [454 1 0 0] 
s 0.677227550 _1_ MAC  --- 21 ack 98 [13a 0 1 800] ------- [1:0 0:0 32 0] [2 0] 0 0
r 0.678012164 _0_ MAC  --- 21 ack 40 [13a 0 1 800] ------- [1:0 0:0 32 0] [2 0] 1 0
s 0.678022164 _0_ MAC  --- 0 ACK 38 [0 1 0 0] 
r 0.678326777 _1_ MAC  --- 0 ACK 38 [0 1 0 0] 
s 0.678476777 _1_ MAC  --- 0 RTS 44 [58e 2 1 0] 
r 0.678828990 _2_ MAC  --- 0 RTS 44 [58e 2 1 0] 
s 0.678838990 _2_ MAC  --- 0 CTS 38 [454 1 0 0] 
r 0.679143204 _1_ MAC  --- 0 CTS 38 [454 1 0 0] 
s 0.679153204 _1_ MAC  --- 24 ack 98 [13a 2 1 800] ------- [1:1 2:0 32 0] [7 0] 0 0
r 0.679937417 _2_ MAC  --- 24 ack 40 [13a 2 1 800] ------- [1:1 2:0 32 0] [7 0] 1 0
s 0.679947417 _2_ MAC  --- 0 ACK 38 [0 1 0 0] 
r 0.680251630 _1_ MAC  --- 0 ACK 38 [0 1 0 0] 
s 0.680381417 _2_ MAC  --- 0 RTS 44 [24ce 1 2 0] 
r 0.680733630 _1_ MAC  --- 0 RTS 44 [24ce 1 2 0] 
s 0.680743630 _1_ MAC  --- 0 CTS 38 [2394 2 0 0] 
r 0.681047843 _2_ MAC  --- 0 CTS 38 [2394 2 0 0] 
s 0.681057843 _2_ MAC  --- 29 tcp 1098 [13a 1 2 800] ------- [2:0 1:1 32 0] [12 0] 0 0
r 0.689842056 _1_ MAC  --- 29 tcp 1040 [13a 1 2 800] ------- [2:0 1:1 32 0] [12 0] 1 0
s 0.689852056 _1_ MAC  --- 0 ACK 38 [0 2 0 0] 
r 0.690156268 _2_ MAC  --- 0 ACK 38 [0 2 0 0] 
s 0.690246669 _0_ MAC  --- 0 RTS 44 [24ce 1 0 0] 
r 0.690599283 _1_ MAC  --- 0 RTS 44 [24ce 1 0 0] 
s 0.690609283 _1_ MAC  --- 0 CTS 38 [2394 0 0 0] 
r 0.690913896 _0_ MAC  --- 0 CTS 38 [2394 0 0 0] 
s 0.690923896 _0_ MAC  --- 37 tcp 1098 [13a 1 0 800] ------- [0:0 1:0 32 0] [5 0] 0 0
r 0.699708509 _1_ MAC  --- 37 tcp 1040 [13a 1 0 800] ------- [0:0 1:0 32 0] [5 0] 1 0
s 0.699718509 _1_ MAC  --- 0 ACK 38 [0 0 0 0] 
r 0.700023122 _0_ MAC  --- 0 ACK 38 [0 0 0 0] 
s 0.700252722 _2_ MAC  --- 0 RTS 44 [24ce 1 2 0] 
r 0.700604934 _1_ MAC  --- 0 RTS 44 [24ce 1 2 0] 
s 0.700614934 _1_ MAC  --- 0 CTS 38 [2394 2 0 0] 
r 0.700919147 _2_ MAC  --- 0 CTS 38 [2394 2 0 0] 
s 0.700929147 _2_ MAC  --- 32 tcp 1098 [13a 1 2 800] ------- [2:0 1:1 32 0] [13 0] 0 0
r 0.709713359 _1_ MAC  --- 32 tcp 1040 [13a 1 2 800] ------- [2:0 1:1 32 0] [13 0] 1 0
s 0.709723359 _1_ MAC  --- 0 ACK 38 [0 2 0 0] 
r 0.710027571 _2_ MAC  --- 0 ACK 38 [0 2 0 0] 
s 0.710097972 _0_ MAC  --- 0 RTS 44 [24ce 1 0 0] 
r 0.710450585 _1_ MAC  --- 0 RTS 44 [24ce 1 0 0] 
s 0.710460585 _1_ MAC  --- 0 CTS 38 [2394 0 0 0] 
r 0.710765198 _0_ MAC  --- 0 CTS 38 [2394 0 0 0] 
s 0.710775198 _0_ MAC  --- 38 tcp 1098 [13a 1 0 800] ------- [0:0 1:0 32 0] [6 0] 0 0
r 0.719559810 _1_ MAC  --- 38 tcp 1040 [13a 1 0 800] ------- [0:0 1:0 32 0] [6 0] 1 0
s 0.719569810 _1_ MAC  --- 0 ACK 38 [0 0 0 0] 
r 0.719874423 _0_ MAC  --- 0 ACK 38 [0 0 0 0] 
s 0.720143810 _1_ MAC  --- 0 RTS 44 [58e 0 1 0] 
r 0.720496423 _0_ MAC  --- 0 RTS 44 [58e 0 1 0] 
s 0.720506423 _0_ MAC  --- 0 CTS 38 [454 1 0 0] 
r 0.720811035 _1_ MAC  --- 0 CTS 38 [454 1 0 0] 
s 0.720821035 _1_ MAC  --- 27 ack 98 [13a 0 1 800] ------- [1:0 0:0 32 0] [3 0] 0 0
r 0.721605647 _0_ MAC  --- 27 ack 40 [13a 0 1 800] ------- [1:0 0:0 32 0] [3 0] 1 0
s 0.721615647 _0_ MAC  --- 0 ACK 38 [0 1 0 0] 
r 0.721920260 _1_ MAC  --- 0 ACK 38 [0 1 0 0] 
s 0.722089647 _0_ MAC  --- 0 RTS 44 [24ce 1 0 0] 
r 0.722442260 _1_ MAC  --- 0 RTS 44 [24ce 1 0 0] 
s 0.722452260 _1_ MAC  --- 0 CTS 38 [2394 0 0 0] 
r 0.722756872 _0_ MAC  --- 0 CTS 38 [2394 0 0 0] 
s 0.722766872 _0_ MAC  --- 45 tcp 1098 [13a 1 0 800] ------- [0:0 1:0 32 0] [7 0] 0 0
r 0.731551484 _1_ MAC  --- 45 tcp 1040 [13a 1 0 800] ------- [0:0 1:0 32 0] [7 0] 1 0
s 0.731561484 _1_ MAC  --- 0 ACK 38 [0 0 0 0] 
r 0.731866096 _0_ MAC  --- 0 ACK 38 [0 0 0 0] 
s 0.732155484 _1_ MAC  --- 0 RTS 44 [58e 2 1 0] 
r 0.732507696 _2_ MAC  --- 0 RTS 44 [58e 2 1 0] 
s 0.732517696 _2_ MAC  --- 0 CTS 38 [454 1 0 0] 
r 0.732821907 _1_ MAC  --- 0 CTS 38 [454 1 0 0] 
s 0.732831907 _1_ MAC  --- 30 ack 98 [13a 2 1 800] ------- [1:1 2:0 32 0] [8 0] 0 0
r 0.733616118 _2_ MAC  --- 30 ack 40 [13a 2 1 800] ------- [1:1 2:0 32 0] [8 0] 1 0
s 0.733626118 _2_ MAC  --- 0 ACK 38 [0 1 0 0] 
r 0.733930330 _1_ MAC  --- 0 ACK 38 [0 1 0 0] 
s 0.734020118 _2_ MAC  --- 0 RTS 44 [24ce 1 2 0] 
r 0.734372329 _1_ MAC  --- 0 RTS 44 [24ce 1 2 0] 
s 0.734382329 _1_ MAC  --- 0 CTS 38 [2394 2 0 0] 
r 0.734686541 _2_ MAC  --- 0 CTS 38 [2394 2 0 0] 
s 0.734696541 _2_ MAC  --- 33 tcp 1098 [13a 1 2 800] ------- [2:0 1:1 32 0] [14 0] 0 0
r 0.743480752 _1_ MAC  --- 33 tcp 1040 [13a 1 2 800] ------- [2:0 1:1 32 0] [14 0] 1 0
s 0.743490752 _1_ MAC  --- 0 ACK 38 [0 2 0 0] 
r 0.743794963 _2_ MAC  --- 0 ACK 38 [0 2 0 0] 
s 0.744024963 _2_ MAC  --- 0 RTS 44 [24ce 1 2 0] 
r 0.744377174 _1_ MAC  --- 0 RTS 44 [24ce 1 2 0] 
s 0.744387174 _1_ MAC  --- 0 CTS 38 [2394 2 0 0] 
r 0.744691385 _2_ MAC  --- 0 CTS 38 [2394 2 0 0] 
s 0.744701385 _2_ MAC  --- 39 tcp 1098 [13a 1 2 800] ------- [2:0 1:1 32 0] [15 0] 0 0
r 0.753485596 _1_ MAC  --- 39 tcp 1040 [13a 1 2 800] ------- [2:0 1:1 32 0] [15 0] 1 0
s 0.753495596 _1_ MAC  --- 0 ACK 38 [0 2 0 0] 
r 0.753799806 _2_ MAC  --- 0 ACK 38 [0 2 0 0] 
s 0.753929596 _1_ MAC  --- 0 RTS 44 [58e 2 1 0] 
r 0.754281806 _2_ MAC  --- 0 RTS 44 [58e 2 1 0] 
s 0.754291806 _2_ MAC  --- 0 CTS 38 [454 1 0 0] 
r 0.754596017 _1_ MAC  --- 0 CTS 38 [454 1 0 0] 
s 0.754606017 _1_ MAC  --- 31 ack 98 [13a 2 1 800] ------- [1:1 2:0 32 0] [9 0] 0 0
r 0.755390227 _2_ MAC  --- 31 ack 40 [13a 2 1 800] ------- [1:1 2:0 32 0] [9 0] 1 0
s 0.755400227 _2_ MAC  --- 0 ACK 38 [0 1 0 0] 
r 0.755704438 _1_ MAC  --- 0 ACK 38 [0 1 0 0] 
s 0.755775049 _0_ MAC  --- 0 RTS 44 [24ce 1 0 0] 
r 0.756127660 _1_ MAC  --- 0 RTS 44 [24ce 1 0 0] 
s 0.756137660 _1_ MAC  --- 0 CTS 38 [2394 0 0 0] 
r 0.756442271 _0_ MAC  --- 0 CTS 38 [2394 0 0 0] 
s 0.756452271 _0_ MAC  --- 46 tcp 1098 [13a 1 0 800] ------- [0:0 1:0 32 0] [8 0] 0 0
r 0.765236883 _1_ MAC  --- 46 tcp 1040 [13a 1 0 800] ------- [0:0 1:0 32 0] [8 0] 1 0
s 0.765246883 _1_ MAC  --- 0 ACK 38 [0 0 0 0] 
r 0.765551493 _0_ MAC  --- 0 ACK 38 [0 0 0 0] 
s 0.765801093 _2_ MAC  --- 0 RTS 44 [24ce 1 2 0] 
r 0.766153303 _1_ MAC  --- 0 RTS 44 [24ce 1 2 0] 
s 0.766163303 _1_ MAC  --- 0 CTS 38 [2394 2 0 0] 
r 0.766467513 _2_ MAC  --- 0 CTS 38 [2394 2 0 0] 
s 0.766477513 _2_ MAC  --- 40 tcp 1098 [13a 1 2 800] ------- [2:0 1:1 32 0] [16 0] 0 0
r 0.775261723 _1_ MAC  --- 40 tcp 1040 [13a 1 2 800] ------- [2:0 1:1 32 0] [16 0] 1 0
s 0.775271723 _1_ MAC  --- 0 ACK 38 [0 2 0 0] 
r 0.775575933 _2_ MAC  --- 0 ACK 38 [0 2 0 0] 
s 0.775845933 _2_ MAC  --- 0 RTS 44 [24ce 1 2 0] 
r 0.776198143 _1_ MAC  --- 0 RTS 44 [24ce 1 2 0] 
s 0.776208143 _1_ MAC  --- 0 CTS 38 [2394 2 0 0] 
r 0.776512353 _2_ MAC  --- 0 CTS 38 [2394 2 0 0] 
s 0.776522353 _2_ MAC  --- 48 tcp 1098 [13a 1 2 800] ------- [2:0 1:1 32 0] [17 0] 0 0
r 0.785306563 _1_ MAC  --- 48 tcp 1040 [13a 1 2 800] ------- [2:0 1:1 32 0] [17 0] 1 0
s 0.785316563 _1_ MAC  --- 0 ACK 38 [0 2 0 0] 
r 0.785620772 _2_ MAC  --- 0 ACK 38 [0 2 0 0] 
s 0.785710563 _1_ MAC  --- 0 RTS 44 [58e 0 1 0] 
r 0.786063173 _0_ MAC  --- 0 RTS 44 [58e 0 1 0] 
s 0.786073173 _0_ MAC  --- 0 CTS 38 [454 1 0 0] 
r 0.786377783 _1_ MAC  --- 0 CTS 38 [454 1 0 0] 
s 0.786387783 _1_ MAC  --- 34 ack 98 [13a 0 1 800] ------- [1:0 0:0 32 0] [4 0] 0 0
r 0.787172393 _0_ MAC  --- 34 ack 40 [13a 0 1 800] ------- [1:0 0:0 32 0] [4 0] 1 0
s 0.787182393 _0_ MAC  --- 0 ACK 38 [0 1 0 0] 
r 0.787487004 _1_ MAC  --- 0 ACK 38 [0 1 0 0] 
s 0.787696393 _0_ MAC  --- 0 RTS 44 [24ce 1 0 0] 
r 0.788049004 _1_ MAC  --- 0 RTS 44 [24ce 1 0 0] 
s 0.788059004 _1_ MAC  --- 0 CTS 38 [2394 0 0 0] 
r 0.788363614 _0_ MAC  --- 0 CTS 38 [2394 0 0 0] 
s 0.788373614 _0_ MAC  --- 57 tcp 1098 [13a 1 0 800] ------- [0:0 1:0 32 0] [9 0] 0 0
r 0.797158224 _1_ MAC  --- 57 tcp 1040 [13a 1 0 800] ------- [0:0 1:0 32 0] [9 0] 1 0
s 0.797168224 _1_ MAC  --- 0 ACK 38 [0 0 0 0] 
r 0.797472834 _0_ MAC  --- 0 ACK 38 [0 0 0 0] 
s 0.797602224 _1_ MAC  --- 0 RTS 44 [58e 2 1 0] 
r 0.797954433 _2_ MAC  --- 0 RTS 44 [58e 2 1 0] 
s 0.797964433 _2_ MAC  --- 0 CTS 38 [454 1 0 0] 
r 0.798268642 _1_ MAC  --- 0 CTS 38 [454 1 0 0] 
s 0.798278642 _1_ MAC  --- 35 ack 98 [13a 2 1 800] ------- [1:1 2:0 32 0] [10 0] 0 0
r 0.799062851 _2_ MAC  --- 35 ack 40 [13a 2 1 800] ------- [1:1 2:0 32 0] [10 0] 1 0
s 0.799072851 _2_ MAC  --- 0 ACK 38 [0 1 0 0] 
r 0.799377060 _1_ MAC  --- 0 ACK 38 [0 1 0 0] 
s 0.799447670 _0_ MAC  --- 0 RTS 44 [24ce 1 0 0] 
r 0.799800280 _1_ MAC  --- 0 RTS 44 [24ce 1 0 0] 
s 0.799810280 _1_ MAC  --- 0 CTS 38 [2394 0 0 0] 
r 0.800114889 _0_ MAC  --- 0 CTS 38 [2394 0 0 0] 
s 0.800124889 _0_ MAC  --- 58 tcp 1098 [13a 1 0 800] ------- [0:0 1:0 32 0] [10 0] 0 0
r 0.808909499 _1_ MAC  --- 58 tcp 1040 [13a 1 0 800] ------- [0:0 1:0 32 0] [10 0] 1 0
s 0.808919499 _1_ MAC  --- 0 ACK 38 [0 0 0 0] 
r 0.809224109 _0_ MAC  --- 0 ACK 38 [0 0 0 0] 
s 0.809353708 _2_ MAC  --- 0 RTS 44 [24ce 1 2 0] 
r 0.809705917 _1_ MAC  --- 0 RTS 44 [24ce 1 2 0] 
s 0.809715917 _1_ MAC  --- 0 CTS 38 [2394 2 0 0] 
r 0.810020126 _2_ MAC  --- 0 CTS 38 [2394 2 0 0] 
s 0.810030126 _2_ MAC  --- 49 tcp 1098 [13a 1 2 800] ------- [2:0 1:1 32 0] [18 0] 0 0
r 0.818814334 _1_ MAC  --- 49 tcp 1040 [13a 1 2 800] ------- [2:0 1:1 32 0] [18 0] 1 0
s 0.818824334 _1_ MAC  --- 0 ACK 38 [0 2 0 0] 
r 0.819128543 _2_ MAC  --- 0 ACK 38 [0 2 0 0] 
s 0.819378334 _1_ MAC  --- 0 RTS 44 [58e 2 1 0] 
r 0.819730543 _2_ MAC  --- 0 RTS 44 [58e 2 1 0] 
s 0.819740543 _2_ MAC  --- 0 CTS 38 [454 1 0 0] 
r 0.820044751 _1_ MAC  --- 0 CTS 38 [454 1 0 0] 
s 0.820054751 _1_ MAC  --- 36 ack 98 [13a 2 1 800] ------- [1:1 2:0 32 0] [11 0] 0 0
r 0.820838959 _2_ MAC  --- 36 ack 40 [13a 2 1 800] ------- [1:1 2:0 32 0] [11 0] 1 0
s 0.820848959 _2_ MAC  --- 0 ACK 38 [0 1 0 0] 
r 0.821153168 _1_ MAC  --- 0 ACK 38 [0 1 0 0] 
s 0.821262959 _2_ MAC  --- 0 RTS 44 [24ce 1 2 0] 
r 0.821615168 _1_ MAC  --- 0 RTS 44 [24ce 1 2 0] 
s 0.821625168 _1_ MAC  --- 0 CTS 38 [2394 2 0 0] 
r 0.821929376 _2_ MAC  --- 0 CTS 38 [2394 2 0 0] 
s 0.821939376 _2_ MAC  --- 52 tcp 1098 [13a 1 2 800] ------- [2:0 1:1 32 0] [19 0] 0 0
r 0.830723584 _1_ MAC  --- 52 tcp 1040 [13a 1 2 800] ------- [2:0 1:1 32 0] [19 0] 1 0
s 0.830733584 _1_ MAC  --- 0 ACK 38 [0 2 0 0] 
r 0.831037792 _2_ MAC  --- 0 ACK 38 [0 2 0 0] 
s 0.831347584 _1_ MAC  --- 0 RTS 44 [58e 2 1 0] 
r 0.831699792 _2_ MAC  --- 0 RTS 44 [58e 2 1 0] 
s 0.831709792 _2_ MAC  --- 0 CTS 38 [454 1 0 0] 
r 0.832014000 _1_ MAC  --- 0 CTS 38 [454 1 0 0] 
s 0.832024000 _1_ MAC  --- 41 ack 98 [13a 2 1 800] ------- [1:1 2:0 32 0] [12 0] 0 0
r 0.832808208 _2_ MAC  --- 41 ack 40 [13a 2 1 800] ------- [1:1 2:0 32 0] [12 0] 1 0
s 0.832818208 _2_ MAC  --- 0 ACK 38 [0 1 0 0] 
r 0.833122416 _1_ MAC  --- 0 ACK 38 [0 1 0 0] 
s 0.833192416 _1_ MAC  --- 0 RTS 44 [58e 0 1 0] 
r 0.833545025 _0_ MAC  --- 0 RTS 44 [58e 0 1 0] 
s 0.833555025 _0_ MAC  --- 0 CTS 38 [454 1 0 0] 
r 0.833859634 _1_ MAC  --- 0 CTS 38 [454 1 0 0] 
s 0.833869634 _1_ MAC  --- 42 ack 98 [13a 0 1 800] ------- [1:0 0:0 32 0] [5 0] 0 0
r 0.834654242 _0_ MAC  --- 42 ack 40 [13a 0 1 800] ------- [1:0 0:0 32 0] [5 0] 1 0
s 0.834664242 _0_ MAC  --- 0 ACK 38 [0 1 0 0] 
r 0.834968851 _1_ MAC  --- 0 ACK 38 [0 1 0 0] 
s 0.835039059 _2_ MAC  --- 0 RTS 44 [24ce 1 2 0] 
r 0.835391266 _1_ MAC  --- 0 RTS 44 [24ce 1 2 0] 
s 0.835401266 _1_ MAC  --- 0 CTS 38 [2394 2 0 0] 
r 0.835705474 _2_ MAC  --- 0 CTS 38 [2394 2 0 0] 
s 0.835715474 _2_ MAC  --- 53 tcp 1098 [13a 1 2 800] ------- [2:0 1:1 32 0] [20 0] 0 0
r 0.844499682 _1_ MAC  --- 53 tcp 1040 [13a 1 2 800] ------- [2:0 1:1 32 0] [20 0] 1 0
s 0.844509682 _1_ MAC  --- 0 ACK 38 [0 2 0 0] 
r 0.844813890 _2_ MAC  --- 0 ACK 38 [0 2 0 0] 
s 0.844983890 _2_ MAC  --- 0 RTS 44 [24ce 1 2 0] 
r 0.845336097 _1_ MAC  --- 0 RTS 44 [24ce 1 2 0] 
s 0.845346097 _1_ MAC  --- 0 CTS 38 [2394 2 0 0] 
r 0.845650305 _2_ MAC  --- 0 CTS 38 [2394 2 0 0] 
s 0.845660305 _2_ MAC  --- 60 tcp 1098 [13a 1 2 800] ------- [2:0 1:1 32 0] [21 0] 0 0
r 0.854444512 _1_ MAC  --- 60 tcp 1040 [13a 1 2 800] ------- [2:0 1:1 32 0] [21 0] 1 0
s 0.854454512 _1_ MAC  --- 0 ACK 38 [0 2 0 0] 
r 0.854758719 _2_ MAC  --- 0 ACK 38 [0 2 0 0] 
s 0.854908512 _1_ MAC  --- 0 RTS 44 [58e 2 1 0] 
r 0.855260719 _2_ MAC  --- 0 RTS 44 [58e 2 1 0] 
s 0.855270719 _2_ MAC  --- 0 CTS 38 [454 1 0 0] 
r 0.855574927 _1_ MAC  --- 0 CTS 38 [454 1 0 0] 
s 0.855584927 _1_ MAC  --- 43 ack 98 [13a 2 1 800] ------- [1:1 2:0 32 0] [13 0] 0 0
r 0.856369134 _2_ MAC  --- 43 ack 40 [13a 2 1 800] ------- [1:1 2:0 32 0] [13 0] 1 0
s 0.856379134 _2_ MAC  --- 0 ACK 38 [0 1 0 0] 
r 0.856683341 _1_ MAC  --- 0 ACK 38 [0 1 0 0] 
s 0.856773341 _1_ MAC  --- 0 RTS 44 [58e 0 1 0] 
r 0.857125949 _0_ MAC  --- 0 RTS 44 [58e 0 1 0] 
s 0.857135949 _0_ MAC  --- 0 CTS 38 [454 1 0 0] 
r 0.857440557 _1_ MAC  --- 0 CTS 38 [454 1 0 0] 
s 0.857450557 _1_ MAC  --- 44 ack 98 [13a 0 1 800] ------- [1:0 0:0 32 0] [6 0] 0 0
r 0.858235164 _0_ MAC  --- 44 ack 40 [13a 0 1 800] ------- [1:0 0:0 32 0] [6 0] 1 0
s 0.858245164 _0_ MAC  --- 0 ACK 38 [0 1 0 0] 
r 0.858549772 _1_ MAC  --- 0 ACK 38 [0 1 0 0] 
s 0.858779979 _2_ MAC  --- 0 RTS 44 [24ce 1 2 0] 
r 0.859132186 _1_ MAC  --- 0 RTS 44 [24ce 1 2 0] 
s 0.859142186 _1_ MAC  --- 0 CTS 38 [2394 2 0 0] 
r 0.859446394 _2_ MAC  --- 0 CTS 38 [2394 2 0 0] 
s 0.859456394 _2_ MAC  --- 61 tcp 1098 [13a 1 2 800] ------- [2:0 1:1 32 0] [22 0] 0 0
r 0.868240601 _1_ MAC  --- 61 tcp 1040 [13a 1 2 800] ------- [2:0 1:1 32 0] [22 0] 1 0
s 0.868250601 _1_ MAC  --- 0 ACK 38 [0 2 0 0] 
r 0.868554807 _2_ MAC  --- 0 ACK 38 [0 2 0 0] 
s 0.868665208 _0_ MAC  --- 0 RTS 44 [24ce 1 0 0] 
r 0.869017816 _1_ MAC  --- 0 RTS 44 [24ce 1 0 0] 
s 0.869027816 _1_ MAC  --- 0 CTS 38 [2394 0 0 0] 
r 0.869332423 _0_ MAC  --- 0 CTS 38 [2394 0 0 0] 
s 0.869342423 _0_ MAC  --- 69 tcp 1098 [13a 1 0 800] ------- [0:0 1:0 32 0] [11 0] 0 0
r 0.878127031 _1_ MAC  --- 69 tcp 1040 [13a 1 0 800] ------- [0:0 1:0 32 0] [11 0] 1 0
s 0.878137031 _1_ MAC  --- 0 ACK 38 [0 0 0 0] 
r 0.878441638 _0_ MAC  --- 0 ACK 38 [0 0 0 0] 
s 0.878551237 _2_ MAC  --- 0 RTS 44 [24ce 1 2 0] 
r 0.878903444 _1_ MAC  --- 0 RTS 44 [24ce 1 2 0] 
s 0.878913444 _1_ MAC  --- 0 CTS 38 [2394 2 0 0] 
r 0.879217650 _2_ MAC  --- 0 CTS 38 [2394 2 0 0] 
s 0.879227650 _2_ MAC  --- 64 tcp 1098 [13a 1 2 800] ------- [2:0 1:1 32 0] [23 0] 0 0
r 0.888011857 _1_ MAC  --- 64 tcp 1040 [13a 1 2 800] ------- [2:0 1:1 32 0] [23 0] 1 0
s 0.888021857 _1_ MAC  --- 0 ACK 38 [0 2 0 0] 
r 0.888326063 _2_ MAC  --- 0 ACK 38 [0 2 0 0] 
s 0.888476063 _2_ MAC  --- 0 RTS 44 [24ce 1 2 0] 
r 0.888828269 _1_ MAC  --- 0 RTS 44 [24ce 1 2 0] 
s 0.888838269 _1_ MAC  --- 0 CTS 38 [2394 2 0 0] 
r 0.889142475 _2_ MAC  --- 0 CTS 38 [2394 2 0 0] 
s 0.889152475 _2_ MAC  --- 65 tcp 1098 [13a 1 2 800] ------- [2:0 1:1 32 0] [24 0] 0 0
r 0.897936681 _1_ MAC  --- 65 tcp 1040 [13a 1 2 800] ------- [2:0 1:1 32 0] [24 0] 1 0
s 0.897946681 _1_ MAC  --- 0 ACK 38 [0 2 0 0] 
r 0.898250887 _2_ MAC  --- 0 ACK 38 [0 2 0 0] 
s 0.898341288 _0_ MAC  --- 0 RTS 44 [24ce 1 0 0] 
r 0.898693894 _1_ MAC  --- 0 RTS 44 [24ce 1 0 0] 
s 0.898703894 _1_ MAC  --- 0 CTS 38 [2394 0 0 0] 
r 0.899008501 _0_ MAC  --- 0 CTS 38 [2394 0 0 0] 
s 0.899018501 _0_ MAC  --- 70 tcp 1098 [13a 1 0 800] ------- [0:0 1:0 32 0] [12 0] 0 0
r 0.907803107 _1_ MAC  --- 70 tcp 1040 [13a 1 0 800] ------- [0:0 1:0 32 0] [12 0] 1 0
s 0.907813107 _1_ MAC  --- 0 ACK 38 [0 0 0 0] 
r 0.908117713 _0_ MAC  --- 0 ACK 38 [0 0 0 0] 
s 0.908187107 _1_ MAC  --- 0 RTS 44 [58e 0 1 0] 
r 0.908539713 _0_ MAC  --- 0 RTS 44 [58e 0 1 0] 
s 0.908549713 _0_ MAC  --- 0 CTS 38 [454 1 0 0] 
r 0.908854319 _1_ MAC  --- 0 CTS 38 [454 1 0 0] 
s 0.908864319 _1_ MAC  --- 47 ack 98 [13a 0 1 800] ------- [1:0 0:0 32 0] [7 0] 0 0
r 0.909648925 _0_ MAC  --- 47 ack 40 [13a 0 1 800] ------- [1:0 0:0 32 0] [7 0] 1 0
s 0.909658925 _0_ MAC  --- 0 ACK 38 [0 1 0 0] 
r 0.909963531 _1_ MAC  --- 0 ACK 38 [0 1 0 0] 
s 0.910053737 _2_ MAC  --- 0 RTS 44 [24ce 1 2 0] 
r 0.910405942 _1_ MAC  --- 0 RTS 44 [24ce 1 2 0] 
s 0.910415942 _1_ MAC  --- 0 CTS 38 [2394 2 0 0] 
r 0.910720147 _2_ MAC  --- 0 CTS 38 [2394 2 0 0] 
s 0.910730147 _2_ MAC  --- 67 tcp 1098 [13a 1 2 800] ------- [2:0 1:1 32 0] [25 0] 0 0
r 0.919514353 _1_ MAC  --- 67 tcp 1040 [13a 1 2 800] ------- [2:0 1:1 32 0] [25 0] 1 0
s 0.919524353 _1_ MAC  --- 0 ACK 38 [0 2 0 0] 
r 0.919828558 _2_ MAC  --- 0 ACK 38 [0 2 0 0] 
s 0.919938558 _2_ MAC  --- 0 RTS 44 [24ce 1 2 0] 
r 0.920290763 _1_ MAC  --- 0 RTS 44 [24ce 1 2 0] 
s 0.920300763 _1_ MAC  --- 0 CTS 38 [2394 2 0 0] 
r 0.920604968 _2_ MAC  --- 0 CTS 38 [2394 2 0 0] 
s 0.920614968 _2_ MAC  --- 68 tcp 1098 [13a 1 2 800] ------- [2:0 1:1 32 0] [26 0] 0 0