s 0.500355000 _2_ MAC  --- 0 ARP 86 [0 ffffffff 2 806] ------- [REQUEST 2/2 0/1]
r 0.501043283 _1_ MAC  --- 0 ARP 28 [0 ffffffff 2 806] ------- [REQUEST 2/2 0/1]
r 0.501043583 _0_ MAC  --- 0 ARP 28 [0 ffffffff 2 806] ------- [REQUEST 2/2 0/1]
s 0.501098283 _1_ MAC  --- 0 ARP 86 [13a 2 1 806] ------- [REPLY 1/1 2/2]
r 0.501786567 _2_ MAC  --- 0 ARP 28 [13a 2 1 806] ------- [REPLY 1/1 2/2]
s 0.501796567 _2_ MAC  --- 0 ACK 38 [0 1 0 0] 
r 0.502100850 _1_ MAC  --- 0 ACK 38 [0 1 0 0] 
s 0.502411150 _0_ MAC  --- 0 ARP 86 [0 ffffffff 0 806] ------- [REQUEST 0/0 0/1]
r 0.503099450 _1_ MAC  --- 0 ARP 28 [0 ffffffff 0 806] ------- [REQUEST 0/0 0/1]
r 0.503099733 _2_ MAC  --- 0 ARP 28 [0 ffffffff 0 806] ------- [REQUEST 0/0 0/1]
s 0.503209733 _2_ MAC  --- 1 tcp 98 [13a 1 2 800] ------- [2:0 1:1 32 0] [0 0] 0 0
r 0.503994017 _1_ MAC  --- 1 tcp 40 [13a 1 2 800] ------- [2:0 1:1 32 0] [0 0] 1 0
s 0.504004017 _1_ MAC  --- 0 ACK 38 [0 2 0 0] 
r 0.504308300 _2_ MAC  --- 0 ACK 38 [0 2 0 0] 
s 0.504558017 _1_ MAC  --- 0 ARP 86 [13a 0 1 806] ------- [REPLY 1/1 0/0]
r 0.505246317 _0_ MAC  --- 0 ARP 28 [13a 0 1 806] ------- [REPLY 1/1 0/0]
s 0.505256317 _0_ MAC  --- 0 ACK 38 [0 1 0 0] 
r 0.505560617 _1_ MAC  --- 0 ACK 38 [0 1 0 0] 
s 0.505850617 _1_ MAC  --- 2 ack 98 [13a 2 1 800] ------- [1:1 2:0 32 0] [0 0] 0 0
r 0.506634900 _2_ MAC  --- 2 ack 40 [13a 2 1 800] ------- [1:1 2:0 32 0] [0 0] 1 0
s 0.506644900 _2_ MAC  --- 0 ACK 38 [0 1 0 0] 
r 0.506949183 _1_ MAC  --- 0 ACK 38 [0 1 0 0] 
s 0.507019483 _0_ MAC  --- 0 tcp 98 [13a 1 0 800] ------- [0:0 1:0 32 0] [0 0] 0 0
r 0.507803783 _1_ MAC  --- 0 tcp 40 [13a 1 0 800] ------- [0:0 1:0 32 0] [0 0] 1 0
s 0.507813783 _1_ MAC  --- 0 ACK 38 [0 0 0 0] 
r 0.508118083 _0_ MAC  --- 0 ACK 38 [0 0 0 0] 
s 0.508188067 _2_ MAC  --- 3 tcp 1098 [13a 1 2 800] ------- [2:0 1:1 32 0] [1 0] 0 0
r 0.516972350 _1_ MAC  --- 3 tcp 1040 [13a 1 2 800] ------- [2:0 1:1 32 0] [1 0] 1 0
s 0.516982350 _1_ MAC  --- 0 ACK 38 [0 2 0 0] 
r 0.517286633 _2_ MAC  --- 0 ACK 38 [0 2 0 0] 
s 0.517696633 _2_ MAC  --- 4 tcp 1098 [13a 1 2 800] ------- [2:0 1:1 32 0] [2 0] 0 0
r 0.526480917 _1_ MAC  --- 4 tcp 1040 [13a 1 2 800] ------- [2:0 1:1 32 0] [2 0] 1 0
s 0.526490917 _1_ MAC  --- 0 ACK 38 [0 2 0 0] 
r 0.526795200 _2_ MAC  --- 0 ACK 38 [0 2 0 0] 
s 0.526984917 _1_ MAC  --- 5 ack 98 [13a 0 1 800] ------- [1:0 0:0 32 0] [0 0] 0 0
r 0.527769217 _0_ MAC  --- 5 ack 40 [13a 0 1 800] ------- [1:0 0:0 32 0] [0 0] 1 0
s 0.527779217 _0_ MAC  --- 0 ACK 38 [0 1 0 0] 
r 0.528083517 _1_ MAC  --- 0 ACK 38 [0 1 0 0] 
s 0.528293217 _0_ MAC  --- 8 tcp 1098 [13a 1 0 800] ------- [0:0 1:0 32 0] [1 0] 0 0
r 0.537077517 _1_ MAC  --- 8 tcp 1040 [13a 1 0 800] ------- [0:0 1:0 32 0] [1 0] 1 0
s 0.537087517 _1_ MAC  --- 0 ACK 38 [0 0 0 0] 
r 0.537391817 _0_ MAC  --- 0 ACK 38 [0 0 0 0] 
s 0.537761517 _1_ MAC  --- 6 ack 98 [13a 2 1 800] ------- [1:1 2:0 32 0] [1 0] 0 0
r 0.538545800 _2_ MAC  --- 6 ack 40 [13a 2 1 800] ------- [1:1 2:0 32 0] [1 0] 1 0
s 0.538555800 _2_ MAC  --- 0 ACK 38 [0 1 0 0] 
r 0.538860083 _1_ MAC  --- 0 ACK 38 [0 1 0 0] 
s 0.538950383 _0_ MAC  --- 9 tcp 1098 [13a 1 0 800] ------- [0:0 1:0 32 0] [2 0] 0 0
r 0.547734683 _1_ MAC  --- 9 tcp 1040 [13a 1 0 800] ------- [0:0 1:0 32 0] [2 0] 1 0
s 0.547744683 _1_ MAC  --- 0 ACK 38 [0 0 0 0] 
r 0.548048983 _0_ MAC  --- 0 ACK 38 [0 0 0 0] 
s 0.548258683 _1_ MAC  --- 7 ack 98 [13a 2 1 800] ------- [1:1 2:0 32 0] [2 0] 0 0
r 0.549042967 _2_ MAC  --- 7 ack 40 [13a 2 1 800] ------- [1:1 2:0 32 0] [2 0] 1 0
s 0.549052967 _2_ MAC  --- 0 ACK 38 [0 1 0 0] 
r 0.549357250 _1_ MAC  --- 0 ACK 38 [0 1 0 0] 
s 0.549427250 _1_ MAC  --- 10 ack 98 [13a 0 1 800] ------- [1:0 0:0 32 0] [1 0] 0 0
r 0.550211550 _0_ MAC  --- 10 ack 40 [13a 0 1 800] ------- [1:0 0:0 32 0] [1 0] 1 0
s 0.550221550 _0_ MAC  --- 0 ACK 38 [0 1 0 0] 
r 0.550525850 _1_ MAC  --- 0 ACK 38 [0 1 0 0] 
s 0.550615550 _0_ MAC  --- 16 tcp 1098 [13a 1 0 800] ------- [0:0 1:0 32 0] [3 0] 0 0
r 0.559399850 _1_ MAC  --- 16 tcp 1040 [13a 1 0 800] ------- [0:0 1:0 32 0] [3 0] 1 0
s 0.559409850 _1_ MAC  --- 0 ACK 38 [0 0 0 0] 
r 0.559714150 _0_ MAC  --- 0 ACK 38 [0 0 0 0] 
s 0.559844133 _2_ MAC  --- 11 tcp 1098 [13a 1 2 800] ------- [2:0 1:1 32 0] [3 0] 0 0
r 0.568628417 _1_ MAC  --- 11 tcp 1040 [13a 1 2 800] ------- [2:0 1:1 32 0] [3 0] 1 0
s 0.568638417 _1_ MAC  --- 0 ACK 38 [0 2 0 0] 
r 0.568942700 _2_ MAC  --- 0 ACK 38 [0 2 0 0] 
s 0.569112417 _1_ MAC  --- 13 ack 98 [13a 0 1 800] ------- [1:0 0:0 32 0] [2 0] 0 0
r 0.569896717 _0_ MAC  --- 13 ack 40 [13a 0 1 800] ------- [1:0 0:0 32 0] [2 0] 1 0
s 0.569906717 _0_ MAC  --- 0 ACK 38 [0 1 0 0] 
r 0.570211017 _1_ MAC  --- 0 ACK 38 [0 1 0 0] 
s 0.570321300 _2_ MAC  --- 12 tcp 1098 [13a 1 2 800] ------- [2:0 1:1 32 0] [4 0] 0 0
r 0.579105583 _1_ MAC  --- 12 tcp 1040 [13a 1 2 800] ------- [2:0 1:1 32 0] [4 0] 1 0
s 0.579115583 _1_ MAC  --- 0 ACK 38 [0 2 0 0] 
r 0.579419867 _2_ MAC  --- 0 ACK 38 [0 2 0 0] 
s 0.579669883 _0_ MAC  --- 17 tcp 1098 [13a 1 0 800] ------- [0:0 1:0 32 0] [4 0] 0 0
r 0.588454183 _1_ MAC  --- 17 tcp 1040 [13a 1 0 800] ------- [0:0 1:0 32 0] [4 0] 1 0
s 0.588464183 _1_ MAC  --- 0 ACK 38 [0 0 0 0] 
r 0.588768483 _0_ MAC  --- 0 ACK 38 [0 0 0 0] 
s 0.589018467 _2_ MAC  --- 14 tcp 1098 [13a 1 2 800] ------- [2:0 1:1 32 0] [5 0] 0 0
r 0.597802750 _1_ MAC  --- 14 tcp 1040 [13a 1 2 800] ------- [2:0 1:1 32 0] [5 0] 1 0
s 0.597812750 _1_ MAC  --- 0 ACK 38 [0 2 0 0] 
r 0.598117033 _2_ MAC  --- 0 ACK 38 [0 2 0 0] 
s 0.598286750 _1_ MAC  --- 18 ack 98 [13a 0 1 800] ------- [1:0 0:0 32 0] [3 0] 0 0
r 0.599071050 _0_ MAC  --- 18 ack 40 [13a 0 1 800] ------- [1:0 0:0 32 0] [3 0] 1 0
s 0.599081050 _0_ MAC  --- 0 ACK 38 [0 1 0 0] 
r 0.599385350 _1_ MAC  --- 0 ACK 38 [0 1 0 0] 
s 0.599475350 _1_ MAC  --- 19 ack 98 [13a 2 1 800] ------- [1:1 2:0 32 0] [3 0] 0 0
r 0.600259633 _2_ MAC  --- 19 ack 40 [13a 2 1 800] ------- [1:1 2:0 32 0] [3 0] 1 0
s 0.600269633 _2_ MAC  --- 0 ACK 38 [0 1 0 0] 
r 0.600573917 _1_ MAC  --- 0 ACK 38 [0 1 0 0] 
s 0.600823633 _2_ MAC  --- 15 tcp 1098 [13a 1 2 800] ------- [2:0 1:1 32 0] [6 0] 0 0
s 0.600824217 _0_ MAC  --- 20 tcp 1098 [13a 1 0 800] ------- [0:0 1:0 32 0] [5 0] 0 0
D 0.600824517 _1_ MAC  COL 15 tcp 1098 [13a 1 2 800] ------- [2:0 1:1 32 0] [6 0] 0 0
D 0.609608517 _1_ MAC  COL 20 tcp 1098 [13a 1 0 800] ------- [0:0 1:0 32 0] [5 0] 0 0
s 0.610142517 _1_ MAC  --- 22 ack 98 [13a 2 1 800] ------- [1:1 2:0 32 0] [4 0] 0 0
r 0.610926800 _2_ MAC  --- 22 ack 40 [13a 2 1 800] ------- [1:1 2:0 32 0] [4 0] 1 0
s 0.610936800 _2_ MAC  --- 0 ACK 38 [0 1 0 0] 
r 0.611241083 _1_ MAC  --- 0 ACK 38 [0 1 0 0] 
s 0.611371083 _1_ MAC  --- 23 ack 98 [13a 0 1 800] ------- [1:0 0:0 32 0] [4 0] 0 0
r 0.612155383 _0_ MAC  --- 23 ack 40 [13a 0 1 800] ------- [1:0 0:0 32 0] [4 0] 1 0
s 0.612165383 _0_ MAC  --- 0 ACK 38 [0 1 0 0] 
r 0.612469683 _1_ MAC  --- 0 ACK 38 [0 1 0 0] 
s 0.612639383 _0_ MAC  --- 20 tcp 1098 [13a 1 0 800] ------- [0:0 1:0 32 0] [5 0] 0 0
r 0.621423683 _1_ MAC  --- 20 tcp 1040 [13a 1 0 800] ------- [0:0 1:0 32 0] [5 0] 1 0
s 0.621433683 _1_ MAC  --- 0 ACK 38 [0 0 0 0] 
r 0.621737983 _0_ MAC  --- 0 ACK 38 [0 0 0 0] 
s 0.621947683 _1_ MAC  --- 24 ack 98 [13a 2 1 800] ------- [1:1 2:0 32 0] [5 0] 0 0
r 0.622731967 _2_ MAC  --- 24 ack 40 [13a 2 1 800] ------- [1:1 2:0 32 0] [5 0] 1 0
s 0.622741967 _2_ MAC  --- 0 ACK 38 [0 1 0 0] 
r 0.623046250 _1_ MAC  --- 0 ACK 38 [0 1 0 0] 
s 0.623136550 _0_ MAC  --- 21 tcp 1098 [13a 1 0 800] ------- [0:0 1:0 32 0] [6 0] 0 0
r 0.631920850 _1_ MAC  --- 21 tcp 1040 [13a 1 0 800] ------- [0:0 1:0 32 0] [6 0] 1 0
s 0.631930850 _1_ MAC  --- 0 ACK 38 [0 0 0 0] 
r 0.632235150 _0_ MAC  --- 0 ACK 38 [0 0 0 0] 
s 0.632344850 _1_ MAC  --- 33 ack 98 [13a 0 1 800] ------- [1:0 0:0 32 0] [5 0] 0 0
r 0.633129150 _0_ MAC  --- 33 ack 40 [13a 0 1 800] ------- [1:0 0:0 32 0] [5 0] 1 0
s 0.633139150 _0_ MAC  --- 0 ACK 38 [0 1 0 0] 
r 0.633443450 _1_ MAC  --- 0 ACK 38 [0 1 0 0] 
s 0.633653733 _2_ MAC  --- 15 tcp 1098 [13a 1 2 800] ------- [2:0 1:1 32 0] [6 0] 0 0
r 0.642438017 _1_ MAC  --- 15 tcp 1040 [13a 1 2 800] ------- [2:0 1:1 32 0] [6 0] 1 0
s 0.642448017 _1_ MAC  --- 0 ACK 38 [0 2 0 0] 
r 0.642752300 _2_ MAC  --- 0 ACK 38 [0 2 0 0] 
s 0.642862017 _1_ MAC  --- 36 ack 98 [13a 0 1 800] ------- [1:0 0:0 32 0] [6 0] 0 0
r 0.643646317 _0_ MAC  --- 36 ack 40 [13a 0 1 800] ------- [1:0 0:0 32 0] [6 0] 1 0
s 0.643656317 _0_ MAC  --- 0 ACK 38 [0 1 0 0] 
r 0.643960617 _1_ MAC  --- 0 ACK 38 [0 1 0 0] 
s 0.644150900 _2_ MAC  --- 27 tcp 1098 [13a 1 2 800] ------- [2:0 1:1 32 0] [7 0] 0 0
r 0.652935183 _1_ MAC  --- 27 tcp 1040 [13a 1 2 800] ------- [2:0 1:1 32 0] [7 0] 1 0
s 0.652945183 _1_ MAC  --- 0 ACK 38 [0 2 0 0] 
r 0.653249467 _2_ MAC  --- 0 ACK 38 [0 2 0 0] 
s 0.653359467 _2_ MAC  --- 28 tcp 1098 [13a 1 2 800] ------- [2:0 1:1 32 0] [8 0] 0 0
r 0.662143750 _1_ MAC  --- 28 tcp 1040 [13a 1 2 800] ------- [2:0 1:1 32 0] [8 0] 1 0
s 0.662153750 _1_ MAC  --- 0 ACK 38 [0 2 0 0] 
r 0.662458033 _2_ MAC  --- 0 ACK 38 [0 2 0 0] 
s 0.662568050 _0_ MAC  --- 25 tcp 1098 [13a 1 0 800] ------- [0:0 1:0 32 0] [7 0] 0 0
r 0.671352350 _1_ MAC  --- 25 tcp 1040 [13a 1 0 800] ------- [0:0 1:0 32 0] [7 0] 1 0
s 0.671362350 _1_ MAC  --- 0 ACK 38 [0 0 0 0] 
r 0.671666650 _0_ MAC  --- 0 ACK 38 [0 0 0 0] 
s 0.671776633 _2_ MAC  --- 29 tcp 1098 [13a 1 2 800] ------- [2:0 1:1 32 0] [9 0] 0 0
r 0.680560917 _1_ MAC  --- 29 tcp 1040 [13a 1 2 800] ------- [2:0 1:1 32 0] [9 0] 1 0
s 0.680570917 _1_ MAC  --- 0 ACK 38 [0 2 0 0] 
r 0.680875200 _2_ MAC  --- 0 ACK 38 [0 2 0 0] 
s 0.681184917 _1_ MAC  --- 39 ack 98 [13a 2 1 800] ------- [1:1 2:0 32 0] [6 0] 0 0
r 0.681969200 _2_ MAC  --- 39 ack 40 [13a 2 1 800] ------- [1:1 2:0 32 0] [6 0] 1 0
s 0.681979200 _2_ MAC  --- 0 ACK 38 [0 1 0 0] 
r 0.682283483 _1_ MAC  --- 0 ACK 38 [0 1 0 0] 
s 0.682373783 _0_ MAC  --- 26 tcp 1098 [13a 1 0 800] ------- [0:0 1:0 32 0] [8 0] 0 0
r 0.691158083 _1_ MAC  --- 26 tcp 1040 [13a 1 0 800] ------- [0:0 1:0 32 0] [8 0] 1 0
s 0.691168083 _1_ MAC  --- 0 ACK 38 [0 0 0 0] 
r 0.691472383 _0_ MAC  --- 0 ACK 38 [0 0 0 0] 
s 0.691702383 _0_ MAC  --- 31 tcp 1098 [13a 1 0 800] ------- [0:0 1:0 32 0] [9 0] 0 0
r 0.700486683 _1_ MAC  --- 31 tcp 1040 [13a 1 0 800] ------- [0:0 1:0 32 0] [9 0] 1 0
s 0.700496683 _1_ MAC  --- 0 ACK 38 [0 0 0 0] 
r 0.700800983 _0_ MAC  --- 0 ACK 38 [0 0 0 0] 
s 0.700870967 _2_ MAC  --- 30 tcp 1098 [13a 1 2 800] ------- [2:0 1:1 32 0] [10 0] 0 0
r 0.709655250 _1_ MAC  --- 30 tcp 1040 [13a 1 2 800] ------- [2:0 1:1 32 0] [10 0] 1 0
s 0.709665250 _1_ MAC  --- 0 ACK 38 [0 2 0 0] 
r 0.709969533 _2_ MAC  --- 0 ACK 38 [0 2 0 0] 
s 0.710059250 _1_ MAC  --- 42 ack 98 [13a 2 1 800] ------- [1:1 2:0 32 0] [7 0] 0 0
r 0.710843533 _2_ MAC  --- 42 ack 40 [13a 2 1 800] ------- [1:1 2:0 32 0] [7 0] 1 0
s 0.710853533 _2_ MAC  --- 0 ACK 38 [0 1 0 0] 
r 0.711157817 _1_ MAC  --- 0 ACK 38 [0 1 0 0] 
s 0.711207817 _1_ MAC  --- 43 ack 98 [13a 2 1 800] ------- [1:1 2:0 32 0] [8 0] 0 0
r 0.711992100 _2_ MAC  --- 43 ack 40 [13a 2 1 800] ------- [1:1 2:0 32 0] [8 0] 1 0
s 0.712002100 _2_ MAC  --- 0 ACK 38 [0 1 0 0] 
r 0.712306383 _1_ MAC  --- 0 ACK 38 [0 1 0 0] 
s 0.712576383 _1_ MAC  --- 44 ack 98 [13a 0 1 800] ------- [1:0 0:0 32 0] [7 0] 0 0
r 0.713360683 _0_ MAC  --- 44 ack 40 [13a 0 1 800] ------- [1:0 0:0 32 0] [7 0] 1 0
s 0.713370683 _0_ MAC  --- 0 ACK 38 [0 1 0 0] 
r 0.713674983 _1_ MAC  --- 0 ACK 38 [0 1 0 0] 
s 0.713764683 _0_ MAC  --- 32 tcp 1098 [13a 1 0 800] ------- [0:0 1:0 32 0] [10 0] 0 0
r 0.722548983 _1_ MAC  --- 32 tcp 1040 [13a 1 0 800] ------- [0:0 1:0 32 0] [10 0] 1 0
s 0.722558983 _1_ MAC  --- 0 ACK 38 [0 0 0 0] 
r 0.722863283 _0_ MAC  --- 0 ACK 38 [0 0 0 0] 
s 0.723073283 _0_ MAC  --- 37 tcp 1098 [13a 1 0 800] ------- [0:0 1:0 32 0] [11 0] 0 0
r 0.731857583 _1_ MAC  --- 37 tcp 1040 [13a 1 0 800] ------- [0:0 1:0 32 0] [11 0] 1 0
s 0.731867583 _1_ MAC  --- 0 ACK 38 [0 0 0 0] 
r 0.732171883 _0_ MAC  --- 0 ACK 38 [0 0 0 0] 
s 0.732241867 _2_ MAC  --- 34 tcp 1098 [13a 1 2 800] ------- [2:0 1:1 32 0] [11 0] 0 0
r 0.741026150 _1_ MAC  --- 34 tcp 1040 [13a 1 2 800] ------- [2:0 1:1 32 0] [11 0] 1 0
s 0.741036150 _1_ MAC  --- 0 ACK 38 [0 2 0 0] 
r 0.741340433 _2_ MAC  --- 0 ACK 38 [0 2 0 0] 
s 0.741470433 _2_ MAC  --- 35 tcp 1098 [13a 1 2 800] ------- [2:0 1:1 32 0] [12 0] 0 0
r 0.750254717 _1_ MAC  --- 35 tcp 1040 [13a 1 2 800] ------- [2:0 1:1 32 0] [12 0] 1 0
s 0.750264717 _1_ MAC  --- 0 ACK 38 [0 2 0 0] 
r 0.750569000 _2_ MAC  --- 0 ACK 38 [0 2 0 0] 
s 0.750638717 _1_ MAC  --- 45 ack 98 [13a 2 1 800] ------- [1:1 2:0 32 0] [9 0] 0 0
r 0.751423000 _2_ MAC  --- 45 ack 40 [13a 2 1 800] ------- [1:1 2:0 32 0] [9 0] 1 0
s 0.751433000 _2_ MAC  --- 0 ACK 38 [0 1 0 0] 
r 0.751737283 _1_ MAC  --- 0 ACK 38 [0 1 0 0] 
s 0.751787283 _1_ MAC  --- 48 ack 98 [13a 0 1 800] ------- [1:0 0:0 32 0] [8 0] 0 0
r 0.752571583 _0_ MAC  --- 48 ack 40 [13a 0 1 800] ------- [1:0 0:0 32 0] [8 0] 1 0
s 0.752581583 _0_ MAC  --- 0 ACK 38 [0 1 0 0] 
r 0.752885883 _1_ MAC  --- 0 ACK 38 [0 1 0 0] 
s 0.753055583 _0_ MAC  --- 38 tcp 1098 [13a 1 0 800] ------- [0:0 1:0 32 0] [12 0] 0 0
r 0.761839883 _1_ MAC  --- 38 tcp 1040 [13a 1 0 800] ------- [0:0 1:0 32 0] [12 0] 1 0
s 0.761849883 _1_ MAC  --- 0 ACK 38 [0 0 0 0] 
r 0.762154183 _0_ MAC  --- 0 ACK 38 [0 0 0 0] 
s 0.762323883 _1_ MAC  --- 49 ack 98 [13a 0 1 800] ------- [1:0 0:0 32 0] [9 0] 0 0
r 0.763108183 _0_ MAC  --- 49 ack 40 [13a 0 1 800] ------- [1:0 0:0 32 0] [9 0] 1 0
s 0.763118183 _0_ MAC  --- 0 ACK 38 [0 1 0 0] 
r 0.763422483 _1_ MAC  --- 0 ACK 38 [0 1 0 0] 
s 0.763532767 _2_ MAC  --- 46 tcp 1098 [13a 1 2 800] ------- [2:0 1:1 32 0] [13 0] 0 0
r 0.772317050 _1_ MAC  --- 46 tcp 1040 [13a 1 2 800] ------- [2:0 1:1 32 0] [13 0] 1 0
s 0.772327050 _1_ MAC  --- 0 ACK 38 [0 2 0 0] 
r 0.772631333 _2_ MAC  --- 0 ACK 38 [0 2 0 0] 
s 0.772701333 _2_ MAC  --- 47 tcp 1098 [13a 1 2 800] ------- [2:0 1:1 32 0] [14 0] 0 0
r 0.781485617 _1_ MAC  --- 47 tcp 1040 [13a 1 2 800] ------- [2:0 1:1 32 0] [14 0] 1 0
s 0.781495617 _1_ MAC  --- 0 ACK 38 [0 2 0 0] 
r 0.781799900 _2_ MAC  --- 0 ACK 38 [0 2 0 0] 
s 0.781949917 _0_ MAC  --- 40 tcp 1098 [13a 1 0 800] ------- [0:0 1:0 32 0] [13 0] 0 0
r 0.790734217 _1_ MAC  --- 40 tcp 1040 [13a 1 0 800] ------- [0:0 1:0 32 0] [13 0] 1 0
s 0.790744217 _1_ MAC  --- 0 ACK 38 [0 0 0 0] 
r 0.791048517 _0_ MAC  --- 0 ACK 38 [0 0 0 0] 
s 0.791198217 _1_ MAC  --- 50 ack 98 [13a 2 1 800] ------- [1:1 2:0 32 0] [10 0] 0 0
r 0.791982500 _2_ MAC  --- 50 ack 40 [13a 2 1 800] ------- [1:1 2:0 32 0] [10 0] 1 0
s 0.791992500 _2_ MAC  --- 0 ACK 38 [0 1 0 0] 
r 0.792296783 _1_ MAC  --- 0 ACK 38 [0 1 0 0] 
s 0.792466783 _1_ MAC  --- 57 ack 98 [13a 0 1 800] ------- [1:0 0:0 32 0] [10 0] 0 0
r 0.793251083 _0_ MAC  --- 57 ack 40 [13a 0 1 800] ------- [1:0 0:0 32 0] [10 0] 1 0
s 0.793261083 _0_ MAC  --- 0 ACK 38 [0 1 0 0] 
r 0.793565383 _1_ MAC  --- 0 ACK 38 [0 1 0 0] 
s 0.793655083 _0_ MAC  --- 41 tcp 1098 [13a 1 0 800] ------- [0:0 1:0 32 0] [14 0] 0 0
r 0.802439383 _1_ MAC  --- 41 tcp 1040 [13a 1 0 800] ------- [0:0 1:0 32 0] [14 0] 1 0
s 0.802449383 _1_ MAC  --- 0 ACK 38 [0 0 0 0] 
r 0.802753683 _0_ MAC  --- 0 ACK 38 [0 0 0 0] 
s 0.802843683 _0_ MAC  --- 55 tcp 1098 [13a 1 0 800] ------- [0:0 1:0 32 0] [15 0] 0 0
r 0.811627983 _1_ MAC  --- 55 tcp 1040 [13a 1 0 800] ------- [0:0 1:0 32 0] [15 0] 1 0
s 0.811637983 _1_ MAC  --- 0 ACK 38 [0 0 0 0] 
r 0.811942283 _0_ MAC  --- 0 ACK 38 [0 0 0 0] 
s 0.812092267 _2_ MAC  --- 51 tcp 1098 [13a 1 2 800] ------- [2:0 1:1 32 0] [15 0] 0 0
r 0.820876550 _1_ MAC  --- 51 tcp 1040 [13a 1 2 800] ------- [2:0 1:1 32 0] [15 0] 1 0
s 0.820886550 _1_ MAC  --- 0 ACK 38 [0 2 0 0] 
r 0.821190833 _2_ MAC  --- 0 ACK 38 [0 2 0 0] 
s 0.821360550 _1_ MAC  --- 58 ack 98 [13a 0 1 800] ------- [1:0 0:0 32 0] [11 0] 0 0
s 0.821360833 _2_ MAC  --- 52 tcp 1098 [13a 1 2 800] ------- [2:0 1:1 32 0] [16 0] 0 0
r 0.822144850 _0_ MAC  --- 58 ack 40 [13a 0 1 800] ------- [1:0 0:0 32 0] [11 0] 1 0
s 0.822154850 _0_ MAC  --- 0 ACK 38 [0 1 0 0] 
D 0.822155150 _1_ MAC  COL 0 ACK 38 [0 1 0 0] 
s 0.830632833 _2_ MAC  --- 52 tcp 1098 [13a 1 2 800] ------- [2:0 1:1 32 0] [16 0] 0 0
r 0.839417117 _1_ MAC  --- 52 tcp 1040 [13a 1 2 800] ------- [2:0 1:1 32 0] [16 0] 1 0
s 0.839427117 _1_ MAC  --- 0 ACK 38 [0 2 0 0] 
r 0.839731400 _2_ MAC  --- 0 ACK 38 [0 2 0 0] 
s 0.839861400 _2_ MAC  --- 53 tcp 1098 [13a 1 2 800] ------- [2:0 1:1 32 0] [17 0] 0 0
r 0.848645683 _1_ MAC  --- 53 tcp 1040 [13a 1 2 800] ------- [2:0 1:1 32 0] [17 0] 1 0
s 0.848655683 _1_ MAC  --- 0 ACK 38 [0 2 0 0] 
r 0.848959967 _2_ MAC  --- 0 ACK 38 [0 2 0 0] 
s 0.849129983 _0_ MAC  --- 56 tcp 1098 [13a 1 0 800] ------- [0:0 1:0 32 0] [16 0] 0 0
r 0.857914283 _1_ MAC  --- 56 tcp 1040 [13a 1 0 800] ------- [0:0 1:0 32 0] [16 0] 1 0
s 0.857924283 _1_ MAC  --- 0 ACK 38 [0 0 0 0] 
r 0.858228583 _0_ MAC  --- 0 ACK 38 [0 0 0 0] 
s 0.858418567 _2_ MAC  --- 54 tcp 1098 [13a 1 2 800] ------- [2:0 1:1 32 0] [18 0] 0 0
r 0.867202850 _1_ MAC  --- 54 tcp 1040 [13a 1 2 800] ------- [2:0 1:1 32 0] [18 0] 1 0
s 0.867212850 _1_ MAC  --- 0 ACK 38 [0 2 0 0] 
r 0.867517133 _2_ MAC  --- 0 ACK 38 [0 2 0 0] 
s 0.867586850 _1_ MAC  --- 58 ack 98 [13a 0 1 800] ------- [1:0 0:0 32 0] [11 0] 0 0
D 0.868371150 _0_ MAC  DUP 58 ack 40 [13a 0 1 800] ------- [1:0 0:0 32 0] [11 0] 1 0
s 0.868381150 _0_ MAC  --- 0 ACK 38 [0 1 0 0] 
r 0.868685450 _1_ MAC  --- 0 ACK 38 [0 1 0 0] 
s 0.868775733 _2_ MAC  --- 61 tcp 1098 [13a 1 2 800] ------- [2:0 1:1 32 0] [19 0] 0 0
r 0.877560017 _1_ MAC  --- 61 tcp 1040 [13a 1 2 800] ------- [2:0 1:1 32 0] [19 0] 1 0
s 0.877570017 _1_ MAC  --- 0 ACK 38 [0 2 0 0] 
r 0.877874300 _2_ MAC  --- 0 ACK 38 [0 2 0 0] 
s 0.877944317 _0_ MAC  --- 63 tcp 1098 [13a 1 0 800] ------- [0:0 1:0 32 0] [17 0] 0 0
r 0.886728617 _1_ MAC  --- 63 tcp 1040 [13a 1 0 800] ------- [0:0 1:0 32 0] [17 0] 1 0
s 0.886738617 _1_ MAC  --- 0 ACK 38 [0 0 0 0] 
r 0.887042917 _0_ MAC  --- 0 ACK 38 [0 0 0 0] 
s 0.887212917 _0_ MAC  --- 64 tcp 1098 [13a 1 0 800] ------- [0:0 1:0 32 0] [18 0] 0 0
r 0.895997217 _1_ MAC  --- 64 tcp 1040 [13a 1 0 800] ------- [0:0 1:0 32 0] [18 0] 1 0
s 0.896007217 _1_ MAC  --- 0 ACK 38 [0 0 0 0] 
r 0.896311517 _0_ MAC  --- 0 ACK 38 [0 0 0 0] 
s 0.896421517 _0_ MAC  --- 66 tcp 1098 [13a 1 0 800] ------- [0:0 1:0 32 0] [19 0] 0 0
r 0.905205817 _1_ MAC  --- 66 tcp 1040 [13a 1 0 800] ------- [0:0 1:0 32 0] [19 0] 1 0
s 0.905215817 _1_ MAC  --- 0 ACK 38 [0 0 0 0] 
r 0.905520117 _0_ MAC  --- 0 ACK 38 [0 0 0 0] 
s 0.905669817 _1_ MAC  --- 59 ack 98 [13a 2 1 800] ------- [1:1 2:0 32 0] [11 0] 0 0
r 0.906454100 _2_ MAC  --- 59 ack 40 [13a 2 1 800] ------- [1:1 2:0 32 0] [11 0] 1 0
s 0.906464100 _2_ MAC  --- 0 ACK 38 [0 1 0 0] 
r 0.906768383 _1_ MAC  --- 0 ACK 38 [0 1 0 0] 
s 0.906938383 _1_ MAC  --- 60 ack 98 [13a 2 1 800] ------- [1:1 2:0 32 0] [12 0] 0 0
r 0.907722667 _2_ MAC  --- 60 ack 40 [13a 2 1 800] ------- [1:1 2:0 32 0] [12 0] 1 0
s 0.907732667 _2_ MAC  --- 0 ACK 38 [0 1 0 0] 
r 0.908036950 _1_ MAC  --- 0 ACK 38 [0 1 0 0] 
s 0.908286667 _2_ MAC  --- 62 tcp 1098 [13a 1 2 800] ------- [2:0 1:1 32 0] [20 0] 0 0
r 0.917070950 _1_ MAC  --- 62 tcp 1040 [13a 1 2 800] ------- [2:0 1:1 32 0] [20 0] 1 0
s 0.917080950 _1_ MAC  --- 0 ACK 38 [0 2 0 0] 
r 0.917385233 _2_ MAC  --- 0 ACK 38 [0 2 0 0] 
s 0.917635250 _0_ MAC  --- 67 tcp 1098 [13a 1 0 800] ------- [0:0 1:0 32 0] [20 0] 0 0
r 0.926419550 _1_ MAC  --- 67 tcp 1040 [13a 1 0 800] ------- [0:0 1:0 32 0] [20 0] 1 0
s 0.926429550 _1_ MAC  --- 0 ACK 38 [0 0 0 0] 
r 0.926733850 _0_ MAC  --- 0 ACK 38 [0 0 0 0] 
s 0.927003550 _1_ MAC  --- 65 ack 98 [13a 0 1 800] ------- [1:0 0:0 32 0] [12 0] 0 0
r 0.927787850 _0_ MAC  --- 65 ack 40 [13a 0 1 800] ------- [1:0 0:0 32 0] [12 0] 1 0
s 0.927797850 _0_ MAC  --- 0 ACK 38 [0 1 0 0] 
r 0.928102150 _1_ MAC  --- 0 ACK 38 [0 1 0 0] 
s 0.928192433 _2_ MAC  --- 71 tcp 1098 [13a 1 2 800] ------- [2:0 1:1 32 0] [21 0] 0 0
r 0.936976717 _1_ MAC  --- 71 tcp 1040 [13a 1 2 800] ------- [2:0 1:1 32 0] [21 0] 1 0
s 0.936986717 _1_ MAC  --- 0 ACK 38 [0 2 0 0] 
r 0.937291000 _2_ MAC  --- 0 ACK 38 [0 2 0 0] 
s 0.937600717 _1_ MAC  --- 68 ack 98 [13a 2 1 800] ------- [1:1 2:0 32 0] [13 0] 0 0
r 0.938385000 _2_ MAC  --- 68 ack 40 [13a 2 1 800] ------- [1:1 2:0 32 0] [13 0] 1 0
s 0.938395000 _2_ MAC  --- 0 ACK 38 [0 1 0 0] 
r 0.938699283 _1_ MAC  --- 0 ACK 38 [0 1 0 0] 
s 0.938789000 _2_ MAC  --- 72 tcp 1098 [13a 1 2 800] ------- [2:0 1:1 32 0] [22 0] 0 0
r 0.947573283 _1_ MAC  --- 72 tcp 1040 [13a 1 2 800] ------- [2:0 1:1 32 0] [22 0] 1 0
s 0.947583283 _1_ MAC  --- 0 ACK 38 [0 2 0 0] 
r 0.947887567 _2_ MAC  --- 0 ACK 38 [0 2 0 0] 
s 0.947957583 _0_ MAC  --- 73 tcp 1098 [13a 1 0 800] ------- [0:0 1:0 32 0] [21 0] 0 0
r 0.956741883 _1_ MAC  --- 73 tcp 1040 [13a 1 0 800] ------- [0:0 1:0 32 0] [21 0] 1 0
s 0.956751883 _1_ MAC  --- 0 ACK 38 [0 0 0 0] 
r 0.957056183 _0_ MAC  --- 0 ACK 38 [0 0 0 0] 
s 0.957146183 _0_ MAC  --- 74 tcp 1098 [13a 1 0 800] ------- [0:0 1:0 32 0] [22 0] 0 0
r 0.965930483 _1_ MAC  --- 74 tcp 1040 [13a 1 0 800] ------- [0:0 1:0 32 0] [22 0] 1 0
s 0.965940483 _1_ MAC  --- 0 ACK 38 [0 0 0 0] 
r 0.966244783 _0_ MAC  --- 0 ACK 38 [0 0 0 0] 
s 0.966494483 _1_ MAC  --- 69 ack 98 [13a 2 1 800] ------- [1:1 2:0 32 0] [14 0] 0 0
r 0.967278767 _2_ MAC  --- 69 ack 40 [13a 2 1 800] ------- [1:1 2:0 32 0] [14 0] 1 0
s 0.967288767 _2_ MAC  --- 0 ACK 38 [0 1 0 0] 
r 0.967593050 _1_ MAC  --- 0 ACK 38 [0 1 0 0] 
s 0.967742767 _2_ MAC  --- 88 tcp 1098 [13a 1 2 800] ------- [2:0 1:1 32 0] [23 0] 0 0
r 0.976527050 _1_ MAC  --- 88 tcp 1040 [13a 1 2 800] ------- [2:0 1:1 32 0] [23 0] 1 0
s 0.976537050 _1_ MAC  --- 0 ACK 38 [0 2 0 0] 
r 0.976841333 _2_ MAC  --- 0 ACK 38 [0 2 0 0] 
s 0.977031050 _1_ MAC  --- 70 ack 98 [13a 0 1 800] ------- [1:0 0:0 32 0] [13 0] 0 0
r 0.977815350 _0_ MAC  --- 70 ack 40 [13a 0 1 800] ------- [1:0 0:0 32 0] [13 0] 1 0
s 0.977825350 _0_ MAC  --- 0 ACK 38 [0 1 0 0] 
r 0.978129650 _1_ MAC  --- 0 ACK 38 [0 1 0 0] 
s 0.978219933 _2_ MAC  --- 89 tcp 1098 [13a 1 2 800] ------- [2:0 1:1 32 0] [24 0] 0 0
r 0.987004217 _1_ MAC  --- 89 tcp 1040 [13a 1 2 800] ------- [2:0 1:1 32 0] [24 0] 1 0
s 0.987014217 _1_ MAC  --- 0 ACK 38 [0 2 0 0] 
r 0.987318500 _2_ MAC  --- 0 ACK 38 [0 2 0 0] 
s 0.987488217 _1_ MAC  --- 75 ack 98 [13a 0 1 800] ------- [1:0 0:0 32 0] [14 0] 0 0
r 0.988272517 _0_ MAC  --- 75 ack 40 [13a 0 1 800] ------- [1:0 0:0 32 0] [14 0] 1 0
s 0.988282517 _0_ MAC  --- 0 ACK 38 [0 1 0 0] 
r 0.988586817 _1_ MAC  --- 0 ACK 38 [0 1 0 0] 
s 0.988696517 _0_ MAC  --- 78 tcp 1098 [13a 1 0 800] ------- [0:0 1:0 32 0] [23 0] 0 0
r 0.997480817 _1_ MAC  --- 78 tcp 1040 [13a 1 0 800] ------- [0:0 1:0 32 0] [23 0] 1 0
s 0.997490817 _1_ MAC  --- 0 ACK 38 [0 0 0 0] 
r 0.997795117 _0_ MAC  --- 0 ACK 38 [0 0 0 0] 
s 0.997965117 _0_ MAC  --- 79 tcp 1098 [13a 1 0 800] ------- [0:0 1:0 32 0] [24 0] 0 0
r 1.006749417 _1_ MAC  --- 79 tcp 1040 [13a 1 0 800] ------- [0:0 1:0 32 0] [24 0] 1 0
s 1.006759417 _1_ MAC  --- 0 ACK 38 [0 0 0 0] 
r 1.007063717 _0_ MAC  --- 0 ACK 38 [0 0 0 0] 
s 1.007253700 _2_ MAC  --- 90 tcp 1098 [13a 1 2 800] ------- [2:0 1:1 32 0] [25 0] 0 0
r 1.016037983 _1_ MAC  --- 90 tcp 1040 [13a 1 2 800] ------- [2:0 1:1 32 0] [25 0] 1 0
s 1.016047983 _1_ MAC  --- 0 ACK 38 [0 2 0 0] 
r 1.016352267 _2_ MAC  --- 0 ACK 38 [0 2 0 0] 
s 1.016422283 _0_ MAC  --- 94 tcp 1098 [13a 1 0 800] ------- [0:0 1:0 32 0] [25 0] 0 0
r 1.025206583 _1_ MAC  --- 94 tcp 1040 [13a 1 0 800] ------- [0:0 1:0 32 0] [25 0] 1 0
s 1.025216583 _1_ MAC  --- 0 ACK 38 [0 0 0 0] 
r 1.025520883 _0_ MAC  --- 0 ACK 38 [0 0 0 0] 
s 1.025570883 _0_ MAC  --- 95 tcp 1098 [13a 1 0 800] ------- [0:0 1:0 32 0] [26 0] 0 0
r 1.034355183 _1_ MAC  --- 95 tcp 1040 [13a 1 0 800] ------- [0:0 1:0 32 0] [26 0] 1 0
s 1.034365183 _1_ MAC  --- 0 ACK 38 [0 0 0 0] 
r 1.034669483 _0_ MAC  --- 0 ACK 38 [0 0 0 0] 
s 1.034779183 _1_ MAC  --- 76 ack 98 [13a 0 1 800] ------- [1:0 0:0 32 0] [15 0] 0 0
r 1.035563483 _0_ MAC  --- 76 ack 40 [13a 0 1 800] ------- [1:0 0:0 32 0] [15 0] 1 0
s 1.035573483 _0_ MAC  --- 0 ACK 38 [0 1 0 0] 
r 1.035877783 _1_ MAC  --- 0 ACK 38 [0 1 0 0] 
s 1.036027483 _0_ MAC  --- 105 tcp 1098 [13a 1 0 800] ------- [0:0 1:0 32 0] [27 0] 0 0
r 1.044811783 _1_ MAC  --- 105 tcp 1040 [13a 1 0 800] ------- [0:0 1:0 32 0] [27 0] 1 0
s 1.044821783 _1_ MAC  --- 0 ACK 38 [0 0 0 0] 
r 1.045126083 _0_ MAC  --- 0 ACK 38 [0 0 0 0] 
s 1.045256067 _2_ MAC  --- 91 tcp 1098 [13a 1 2 800] ------- [2:0 1:1 32 0] [26 0] 0 0
r 1.054040350 _1_ MAC  --- 91 tcp 1040 [13a 1 2 800] ------- [2:0 1:1 32 0] [26 0] 1 0
s 1.054050350 _1_ MAC  --- 0 ACK 38 [0 2 0 0] 
r 1.054354633 _2_ MAC  --- 0 ACK 38 [0 2 0 0] 
s 1.054604350 _1_ MAC  --- 77 ack 98 [13a 2 1 800] ------- [1:1 2:0 32 0] [15 0] 0 0
r 1.055388633 _2_ MAC  --- 77 ack 40 [13a 2 1 800] ------- [1:1 2:0 32 0] [15 0] 1 0
s 1.055398633 _2_ MAC  --- 0 ACK 38 [0 1 0 0] 
r 1.055702917 _1_ MAC  --- 0 ACK 38 [0 1 0 0] 
s 1.055813217 _0_ MAC  --- 106 tcp 1098 [13a 1 0 800] ------- [0:0 1:0 32 0] [28 0] 0 0
r 1.064597517 _1_ MAC  --- 106 tcp 1040 [13a 1 0 800] ------- [0:0 1:0 32 0] [28 0] 1 0
s 1.064607517 _1_ MAC  --- 0 ACK 38 [0 0 0 0] 
r 1.064911817 _0_ MAC  --- 0 ACK 38 [0 0 0 0] 
s 1.065141800 _2_ MAC  --- 97 tcp 1098 [13a 1 2 800] ------- [2:0 1:1 32 0] [27 0] 0 0
r 1.073926083 _1_ MAC  --- 97 tcp 1040 [13a 1 2 800] ------- [2:0 1:1 32 0] [27 0] 1 0
s 1.073936083 _1_ MAC  --- 0 ACK 38 [0 2 0 0] 
r 1.074240367 _2_ MAC  --- 0 ACK 38 [0 2 0 0] 
s 1.074430383 _0_ MAC  --- 108 tcp 1098 [13a 1 0 800] ------- [0:0 1:0 32 0] [29 0] 0 0
r 1.083214683 _1_ MAC  --- 108 tcp 1040 [13a 1 0 800] ------- [0:0 1:0 32 0] [29 0] 1 0
s 1.083224683 _1_ MAC  --- 0 ACK 38 [0 0 0 0] 
r 1.083528983 _0_ MAC  --- 0 ACK 38 [0 0 0 0] 
s 1.083598967 _2_ MAC  --- 98 tcp 1098 [13a 1 2 800] ------- [2:0 1:1 32 0] [28 0] 0 0
s 1.083598983 _0_ MAC  --- 109 tcp 1098 [13a 1 0 800] ------- [0:0 1:0 32 0] [30 0] 0 0
D 1.083599283 _1_ MAC  COL 98 tcp 1098 [13a 1 2 800] ------- [2:0 1:1 32 0] [28 0] 0 0
D 1.092383283 _1_ MAC  COL 109 tcp 1098 [13a 1 0 800] ------- [0:0 1:0 32 0] [30 0] 0 0
s 1.092897283 _1_ MAC  --- 80 ack 98 [13a 2 1 800] ------- [1:1 2:0 32 0] [16 0] 0 0
r 1.093681567 _2_ MAC  --- 80 ack 40 [13a 2 1 800] ------- [1:1 2:0 32 0] [16 0] 1 0
s 1.093691567 _2_ MAC  --- 0 ACK 38 [0 1 0 0] 
r 1.093995850 _1_ MAC  --- 0 ACK 38 [0 1 0 0] 
s 1.094045850 _1_ MAC  --- 81 ack 98 [13a 2 1 800] ------- [1:1 2:0 32 0] [17 0] 0 0
r 1.094830133 _2_ MAC  --- 81 ack 40 [13a 2 1 800] ------- [1:1 2:0 32 0] [17 0] 1 0
s 1.094840133 _2_ MAC  --- 0 ACK 38 [0 1 0 0] 
r 1.095144417 _1_ MAC  --- 0 ACK 38 [0 1 0 0] 
s 1.095214717 _0_ MAC  --- 109 tcp 1098 [13a 1 0 800] ------- [0:0 1:0 32 0] [30 0] 0 0
r 1.103999017 _1_ MAC  --- 109 tcp 1040 [13a 1 0 800] ------- [0:0 1:0 32 0] [30 0] 1 0
s 1.104009017 _1_ MAC  --- 0 ACK 38 [0 0 0 0] 
r 1.104313317 _0_ MAC  --- 0 ACK 38 [0 0 0 0] 
s 1.104403017 _1_ MAC  --- 82 ack 98 [13a 0 1 800] ------- [1:0 0:0 32 0] [16 0] 0 0
r 1.105187317 _0_ MAC  --- 82 ack 40 [13a 0 1 800] ------- [1:0 0:0 32 0] [16 0] 1 0
s 1.105197317 _0_ MAC  --- 0 ACK 38 [0 1 0 0] 
r 1.105501617 _1_ MAC  --- 0 ACK 38 [0 1 0 0] 
s 1.106051317 _0_ MAC  --- 115 tcp 1098 [13a 1 0 800] ------- [0:0 1:0 32 0] [31 0] 0 0
r 1.114835617 _1_ MAC  --- 115 tcp 1040 [13a 1 0 800] ------- [0:0 1:0 32 0] [31 0] 1 0
s 1.114845617 _1_ MAC  --- 0 ACK 38 [0 0 0 0] 
r 1.115149917 _0_ MAC  --- 0 ACK 38 [0 0 0 0] 
s 1.115319617 _1_ MAC  --- 83 ack 98 [13a 2 1 800] ------- [1:1 2:0 32 0] [18 0] 0 0
r 1.116103900 _2_ MAC  --- 83 ack 40 [13a 2 1 800] ------- [1:1 2:0 32 0] [18 0] 1 0
s 1.116113900 _2_ MAC  --- 0 ACK 38 [0 1 0 0] 
r 1.116418183 _1_ MAC  --- 0 ACK 38 [0 1 0 0] 
s 1.116488183 _1_ MAC  --- 84 ack 98 [13a 2 1 800] ------- [1:1 2:0 32 0] [19 0] 0 0
r 1.117272467 _2_ MAC  --- 84 ack 40 [13a 2 1 800] ------- [1:1 2:0 32 0] [19 0] 1 0
s 1.117282467 _2_ MAC  --- 0 ACK 38 [0 1 0 0] 
r 1.117586750 _1_ MAC  --- 0 ACK 38 [0 1 0 0] 
s 1.117656750 _1_ MAC  --- 85 ack 98 [13a 0 1 800] ------- [1:0 0:0 32 0] [17 0] 0 0
r 1.118441050 _0_ MAC  --- 85 ack 40 [13a 0 1 800] ------- [1:0 0:0 32 0] [17 0] 1 0
s 1.118451050 _0_ MAC  --- 0 ACK 38 [0 1 0 0] 
r 1.118755350 _1_ MAC  --- 0 ACK 38 [0 1 0 0] 
s 1.118865350 _1_ MAC  --- 86 ack 98 [13a 0 1 800] ------- [1:0 0:0 32 0] [18 0] 0 0
r 1.119649650 _0_ MAC  --- 86 ack 40 [13a 0 1 800] ------- [1:0 0:0 32 0] [18 0] 1 0
s 1.119659650 _0_ MAC  --- 0 ACK 38 [0 1 0 0] 
r 1.119963950 _1_ MAC  --- 0 ACK 38 [0 1 0 0] 
s 1.120194233 _2_ MAC  --- 98 tcp 1098 [13a 1 2 800] ------- [2:0 1:1 32 0] [28 0] 0 0
r 1.128978517 _1_ MAC  --- 98 tcp 1040 [13a 1 2 800] ------- [2:0 1:1 32 0] [28 0] 1 0
s 1.128988517 _1_ MAC  --- 0 ACK 38 [0 2 0 0] 
r 1.129292800 _2_ MAC  --- 0 ACK 38 [0 2 0 0] 
s 1.129362800 _2_ MAC  --- 102 tcp 1098 [13a 1 2 800] ------- [2:0 1:1 32 0] [29 0] 0 0
r 1.138147083 _1_ MAC  --- 102 tcp 1040 [13a 1 2 800] ------- [2:0 1:1 32 0] [29 0] 1 0
s 1.138157083 _1_ MAC  --- 0 ACK 38 [0 2 0 0] 
r 1.138461367 _2_ MAC  --- 0 ACK 38 [0 2 0 0] 
s 1.138531367 _2_ MAC  --- 103 tcp 1098 [13a 1 2 800] ------- [2:0 1:1 32 0] [30 0] 0 0
r 1.147315650 _1_ MAC  --- 103 tcp 1040 [13a 1 2 800] ------- [2:0 1:1 32 0] [30 0] 1 0
s 1.147325650 _1_ MAC  --- 0 ACK 38 [0 2 0 0] 
r 1.147629933 _2_ MAC  --- 0 ACK 38 [0 2 0 0] 
s 1.147719650 _1_ MAC  --- 87 ack 98 [13a 0 1 800] ------- [1:0 0:0 32 0] [19 0] 0 0
s 1.147719950 _0_ MAC  --- 116 tcp 1098 [13a 1 0 800] ------- [0:0 1:0 32 0] [32 0] 0 0
s 1.157278533 _2_ MAC  --- 119 tcp 1098 [13a 1 2 800] ------- [2:0 1:1 32 0] [31 0] 0 0
r 1.166062817 _1_ MAC  --- 119 tcp 1040 [13a 1 2 800] ------- [2:0 1:1 32 0] [31 0] 1 0
s 1.166072817 _1_ MAC  --- 0 ACK 38 [0 2 0 0] 
r 1.166377100 _2_ MAC  --- 0 ACK 38 [0 2 0 0] 
s 1.166907100 _2_ MAC  --- 120 tcp 1098 [13a 1 2 800] ------- [2:0 1:1 32 0] [32 0] 0 0
r 1.175691383 _1_ MAC  --- 120 tcp 1040 [13a 1 2 800] ------- [2:0 1:1 32 0] [32 0] 1 0
s 1.175701383 _1_ MAC  --- 0 ACK 38 [0 2 0 0] 
r 1.176005667 _2_ MAC  --- 0 ACK 38 [0 2 0 0] 
s 1.176135683 _0_ MAC  --- 116 tcp 1098 [13a 1 0 800] ------- [0:0 1:0 32 0] [32 0] 0 0
r 1.184919983 _1_ MAC  --- 116 tcp 1040 [13a 1 0 800] ------- [0:0 1:0 32 0] [32 0] 1 0