n -t * -s 0  -x 0 -y 0 -Z 0 -z 20  -v circle -c black
n -t * -s 1  -x 0 -y 0 -Z 0 -z 20  -v circle -c black
n -t * -s 2  -x 0 -y 0 -Z 0 -z 20  -v circle -c black
V -t * -v 1.0a5 -a 0
W -t * -x 250 -y 250
A -t * -n 1 -p 0 -o 0x7fffffff -c 30 -a 1
A -t * -h 1 -m 1073741823 -s 0
+ -t 0.500355000 -s 2 -d -1 -p ARP -e 86 -c 2 -a 0 -i 0 -k MAC 
- -t 0.500355000 -s 2 -d -1 -p ARP -e 86 -c 2 -a 0 -i 0 -k MAC
h -t 0.500355000 -s 2 -d -1 -p ARP -e 86 -c 2 -a 0 -i 0 -k MAC
r -t 0.501043283 -s 1 -d -1 -p ARP -e 28 -c 2 -a 0 -i 0 -k MAC
r -t 0.501043583 -s 0 -d -1 -p ARP -e 28 -c 2 -a 0 -i 0 -k MAC
+ -t 0.501098283 -s 1 -d -1 -p ARP -e 86 -c 2 -a 0 -i 0 -k MAC 
- -t 0.501098283 -s 1 -d -1 -p ARP -e 86 -c 2 -a 0 -i 0 -k MAC
h -t 0.501098283 -s 1 -d -1 -p ARP -e 86 -c 2 -a 0 -i 0 -k MAC
r -t 0.501786567 -s 2 -d -1 -p ARP -e 28 -c 2 -a 0 -i 0 -k MAC
+ -t 0.501796567 -s 2 -d -1 -p ACK -e 38 -c 2 -a 0 -i 0 -k MAC 
- -t 0.501796567 -s 2 -d -1 -p ACK -e 38 -c 2 -a 0 -i 0 -k MAC
h -t 0.501796567 -s 2 -d -1 -p ACK -e 38 -c 2 -a 0 -i 0 -k MAC
r -t 0.502100850 -s 1 -d -1 -p ACK -e 38 -c 2 -a 0 -i 0 -k MAC
+ -t 0.502411150 -s 0 -d -1 -p ARP -e 86 -c 2 -a 0 -i 0 -k MAC 
- -t 0.502411150 -s 0 -d -1 -p ARP -e 86 -c 2 -a 0 -i 0 -k MAC
h -t 0.502411150 -s 0 -d -1 -p ARP -e 86 -c 2 -a 0 -i 0 -k MAC
r -t 0.503099450 -s 1 -d -1 -p ARP -e 28 -c 2 -a 0 -i 0 -k MAC
r -t 0.503099733 -s 2 -d -1 -p ARP -e 28 -c 2 -a 0 -i 0 -k MAC
+ -t 0.503209733 -s 2 -d -1 -p tcp -e 98 -c 2 -a 0 -i 1 -k MAC 
- -t 0.503209733 -s 2 -d -1 -p tcp -e 98 -c 2 -a 0 -i 1 -k MAC
h -t 0.503209733 -s 2 -d -1 -p tcp -e 98 -c 2 -a 0 -i 1 -k MAC
r -t 0.503994017 -s 1 -d -1 -p tcp -e 40 -c 2 -a 0 -i 1 -k MAC
+ -t 0.504004017 -s 1 -d -1 -p ACK -e 38 -c 2 -a 0 -i 0 -k MAC 
- -t 0.504004017 -s 1 -d -1 -p ACK -e 38 -c 2 -a 0 -i 0 -k MAC
h -t 0.504004017 -s 1 -d -1 -p ACK -e 38 -c 2 -a 0 -i 0 -k MAC
r -t 0.504308300 -s 2 -d -1 -p ACK -e 38 -c 2 -a 0 -i 0 -k MAC
+ -t 0.504558017 -s 1 -d -1 -p ARP -e 86 -c 2 -a 0 -i 0 -k MAC 
- -t 0.504558017 -s 1 -d -1 -p ARP -e 86 -c 2 -a 0 -i 0 -k MAC
h -t 0.504558017 -s 1 -d -1 -p ARP -e 86 -c 2 -a 0 -i 0 -k MAC
r -t 0.505246317 -s 0 -d -1 -p ARP -e 28 -c 2 -a 0 -i 0 -k MAC
+ -t 0.505256317 -s 0 -d -1 -p ACK -e 38 -c 2 -a 0 -i 0 -k MAC 
- -t 0.505256317 -s 0 -d -1 -p ACK -e 38 -c 2 -a 0 -i 0 -k MAC
h -t 0.505256317 -s 0 -d -1 -p ACK -e 38 -c 2 -a 0 -i 0 -k MAC
r -t 0.505560617 -s 1 -d -1 -p ACK -e 38 -c 2 -a 0 -i 0 -k MAC
+ -t 0.505850617 -s 1 -d -1 -p ack -e 98 -c 2 -a 0 -i 2 -k MAC 
- -t 0.505850617 -s 1 -d -1 -p ack -e 98 -c 2 -a 0 -i 2 -k MAC
h -t 0.505850617 -s 1 -d -1 -p ack -e 98 -c 2 -a 0 -i 2 -k MAC
r -t 0.506634900 -s 2 -d -1 -p ack -e 40 -c 2 -a 0 -i 2 -k MAC
+ -t 0.506644900 -s 2 -d -1 -p ACK -e 38 -c 2 -a 0 -i 0 -k MAC 
- -t 0.506644900 -s 2 -d -1 -p ACK -e 38 -c 2 -a 0 -i 0 -k MAC
h -t 0.506644900 -s 2 -d -1 -p ACK -e 38 -c 2 -a 0 -i 0 -k MAC
r -t 0.506949183 -s 1 -d -1 -p ACK -e 38 -c 2 -a 0 -i 0 -k MAC
+ -t 0.507019483 -s 0 -d -1 -p tcp -e 98 -c 2 -a 0 -i 0 -k MAC 
- -t 0.507019483 -s 0 -d -1 -p tcp -e 98 -c 2 -a 0 -i 0 -k MAC
h -t 0.507019483 -s 0 -d -1 -p tcp -e 98 -c 2 -a 0 -i 0 -k MAC
r -t 0.507803783 -s 1 -d -1 -p tcp -e 40 -c 2 -a 0 -i 0 -k MAC
+ -t 0.507813783 -s 1 -d -1 -p ACK -e 38 -c 2 -a 0 -i 0 -k MAC 
- -t 0.507813783 -s 1 -d -1 -p ACK -e 38 -c 2 -a 0 -i 0 -k MAC
h -t 0.507813783 -s 1 -d -1 -p ACK -e 38 -c 2 -a 0 -i 0 -k MAC
r -t 0.508118083 -s 0 -d -1 -p ACK -e 38 -c 2 -a 0 -i 0 -k MAC
+ -t 0.508188067 -s 2 -d -1 -p tcp -e 1098 -c 2 -a 0 -i 3 -k MAC 
- -t 0.508188067 -s 2 -d -1 -p tcp -e 1098 -c 2 -a 0 -i 3 -k MAC
h -t 0.508188067 -s 2 -d -1 -p tcp -e 1098 -c 2 -a 0 -i 3 -k MAC
r -t 0.516972350 -s 1 -d -1 -p tcp -e 1040 -c 2 -a 0 -i 3 -k MAC
+ -t 0.516982350 -s 1 -d -1 -p ACK -e 38 -c 2 -a 0 -i 0 -k MAC 
- -t 0.516982350 -s 1 -d -1 -p ACK -e 38 -c 2 -a 0 -i 0 -k MAC
h -t 0.516982350 -s 1 -d -1 -p ACK -e 38 -c 2 -a 0 -i 0 -k MAC
r -t 0.517286633 -s 2 -d -1 -p ACK -e 38 -c 2 -a 0 -i 0 -k MAC
+ -t 0.517696633 -s 2 -d -1 -p tcp -e 1098 -c 2 -a 0 -i 4 -k MAC 
- -t 0.517696633 -s 2 -d -1 -p tcp -e 1098 -c 2 -a 0 -i 4 -k MAC
h -t 0.517696633 -s 2 -d -1 -p tcp -e 1098 -c 2 -a 0 -i 4 -k MAC
r -t 0.526480917 -s 1 -d -1 -p tcp -e 1040 -c 2 -a 0 -i 4 -k MAC
+ -t 0.526490917 -s 1 -d -1 -p ACK -e 38 -c 2 -a 0 -i 0 -k MAC 
- -t 0.526490917 -s 1 -d -1 -p ACK -e 38 -c 2 -a 0 -i 0 -k MAC
h -t 0.526490917 -s 1 -d -1 -p ACK -e 38 -c 2 -a 0 -i 0 -k MAC
r -t 0.526795200 -s 2 -d -1 -p ACK -e 38 -c 2 -a 0 -i 0 -k MAC
+ -t 0.526984917 -s 1 -d -1 -p ack -e 98 -c 2 -a 0 -i 5 -k MAC 
- -t 0.526984917 -s 1 -d -1 -p ack -e 98 -c 2 -a 0 -i 5 -k MAC
h -t 0.526984917 -s 1 -d -1 -p ack -e 98 -c 2 -a 0 -i 5 -k MAC
r -t 0.527769217 -s 0 -d -1 -p ack -e 40 -c 2 -a 0 -i 5 -k MAC
+ -t 0.527779217 -s 0 -d -1 -p ACK -e 38 -c 2 -a 0 -i 0 -k MAC 
- -t 0.527779217 -s 0 -d -1 -p ACK -e 38 -c 2 -a 0 -i 0 -k MAC
h -t 0.527779217 -s 0 -d -1 -p ACK -e 38 -c 2 -a 0 -i 0 -k MAC
r -t 0.528083517 -s 1 -d -1 -p ACK -e 38 -c 2 -a 0 -i 0 -k MAC
+ -t 0.528293217 -s 0 -d -1 -p tcp -e 1098 -c 2 -a 0 -i 8 -k MAC 
- -t 0.528293217 -s 0 -d -1 -p tcp -e 1098 -c 2 -a 0 -i 8 -k MAC
h -t 0.528293217 -s 0 -d -1 -p tcp -e 1098 -c 2 -a 0 -i 8 -k MAC
r -t 0.537077517 -s 1 -d -1 -p tcp -e 1040 -c 2 -a 0 -i 8 -k MAC
+ -t 0.537087517 -s 1 -d -1 -p ACK -e 38 -c 2 -a 0 -i 0 -k MAC 
- -t 0.537087517 -s 1 -d -1 -p ACK -e 38 -c 2 -a 0 -i 0 -k MAC
h -t 0.537087517 -s 1 -d -1 -p ACK -e 38 -c 2 -a 0 -i 0 -k MAC
r -t 0.537391817 -s 0 -d -1 -p ACK -e 38 -c 2 -a 0 -i 0 -k MAC
+ -t 0.537761517 -s 1 -d -1 -p ack -e 98 -c 2 -a 0 -i 6 -k MAC 
- -t 0.537761517 -s 1 -d -1 -p ack -e 98 -c 2 -a 0 -i 6 -k MAC
h -t 0.537761517 -s 1 -d -1 -p ack -e 98 -c 2 -a 0 -i 6 -k MAC
r -t 0.538545800 -s 2 -d -1 -p ack -e 40 -c 2 -a 0 -i 6 -k MAC
+ -t 0.538555800 -s 2 -d -1 -p ACK -e 38 -c 2 -a 0 -i 0 -k MAC 
- -t 0.538555800 -s 2 -d -1 -p ACK -e 38 -c 2 -a 0 -i 0 -k MAC
h -t 0.538555800 -s 2 -d -1 -p ACK -e 38 -c 2 -a 0 -i 0 -k MAC
r -t 0.538860083 -s 1 -d -1 -p ACK -e 38 -c 2 -a 0 -i 0 -k MAC
+ -t 0.538950383 -s 0 -d -1 -p tcp -e 1098 -c 2 -a 0 -i 9 -k MAC 
- -t 0.538950383 -s 0 -d -1 -p tcp -e 1098 -c 2 -a 0 -i 9 -k MAC
h -t 0.538950383 -s 0 -d -1 -p tcp -e 1098 -c 2 -a 0 -i 9 -k MAC
r -t 0.547734683 -s 1 -d -1 -p tcp -e 1040 -c 2 -a 0 -i 9 -k MAC
+ -t 0.547744683 -s 1 -d -1 -p ACK -e 38 -c 2 -a 0 -i 0 -k MAC 
- -t 0.547744683 -s 1 -d -1 -p ACK -e 38 -c 2 -a 0 -i 0 -k MAC
h -t 0.547744683 -s 1 -d -1 -p ACK -e 38 -c 2 -a 0 -i 0 -k MAC
r -t 0.548048983 -s 0 -d -1 -p ACK -e 38 -c 2 -a 0 -i 0 -k MAC
+ -t 0.548258683 -s 1 -d -1 -p ack -e 98 -c 2 -a 0 -i 7 -k MAC 
- -t 0.548258683 -s 1 -d -1 -p ack -e 98 -c 2 -a 0 -i 7 -k MAC
h -t 0.548258683 -s 1 -d -1 -p ack -e 98 -c 2 -a 0 -i 7 -k MAC
r -t 0.549042967 -s 2 -d -1 -p ack -e 40 -c 2 -a 0 -i 7 -k MAC
+ -t 0.549052967 -s 2 -d -1 -p ACK -e 38 -c 2 -a 0 -i 0 -k MAC 
- -t 0.549052967 -s 2 -d -1 -p ACK -e 38 -c 2 -a 0 -i 0 -k MAC
h -t 0.549052967 -s 2 -d -1 -p ACK -e 38 -c 2 -a 0 -i 0 -k MAC
r -t 0.549357250 -s 1 -d -1 -p ACK -e 38 -c 2 -a 0 -i 0 -k MAC
+ -t 0.549427250 -s 1 -d -1 -p ack -e 98 -c 2 -a 0 -i 10 -k MAC 
- -t 0.549427250 -s 1 -d -1 -p ack -e 98 -c 2 -a 0 -i 10 -k MAC
h -t 0.549427250 -s 1 -d -1 -p ack -e 98 -c 2 -a 0 -i 10 -k MAC
r -t 0.550211550 -s 0 -d -1 -p ack -e 40 -c 2 -a 0 -i 10 -k MAC
+ -t 0.550221550 -s 0 -d -1 -p ACK -e 38 -c 2 -a 0 -i 0 -k MAC 
- -t 0.550221550 -s 0 -d -1 -p ACK -e 38 -c 2 -a 0 -i 0 -k MAC
h -t 0.550221550 -s 0 -d -1 -p ACK -e 38 -c 2 -a 0 -i 0 -k MAC
r -t 0.550525850 -s 1 -d -1 -p ACK -e 38 -c 2 -a 0 -i 0 -k MAC
+ -t 0.550615550 -s 0 -d -1 -p tcp -e 1098 -c 2 -a 0 -i 16 -k MAC 
- -t 0.550615550 -s 0 -d -1 -p tcp -e 1098 -c 2 -a 0 -i 16 -k MAC
h -t 0.550615550 -s 0 -d -1 -p tcp -e 1098 -c 2 -a 0 -i 16 -k MAC
r -t 0.559399850 -s 1 -d -1 -p tcp -e 1040 -c 2 -a 0 -i 16 -k MAC
+ -t 0.559409850 -s 1 -d -1 -p ACK -e 38 -c 2 -a 0 -i 0 -k MAC 
- -t 0.559409850 -s 1 -d -1 -p ACK -e 38 -c 2 -a 0 -i 0 -k MAC
h -t 0.559409850 -s 1 -d -1 -p ACK -e 38 -c 2 -a 0 -i 0 -k MAC
r -t 0.559714150 -s 0 -d -1 -p ACK -e 38 -c 2 -a 0 -i 0 -k MAC
+ -t 0.559844133 -s 2 -d -1 -p tcp -e 1098 -c 2 -a 0 -i 11 -k MAC 
- -t 0.559844133 -s 2 -d -1 -p tcp -e 1098 -c 2 -a 0 -i 11 -k MAC
h -t 0.559844133 -s 2 -d -1 -p tcp -e 1098 -c 2 -a 0 -i 11 -k MAC
r -t 0.568628417 -s 1 -d -1 -p tcp -e 1040 -c 2 -a 0 -i 11 -k MAC
+ -t 0.568638417 -s 1 -d -1 -p ACK -e 38 -c 2 -a 0 -i 0 -k MAC 
- -t 0.568638417 -s 1 -d -1 -p ACK -e 38 -c 2 -a 0 -i 0 -k MAC
h -t 0.568638417 -s 1 -d -1 -p ACK -e 38 -c 2 -a 0 -i 0 -k MAC
r -t 0.568942700 -s 2 -d -1 -p ACK -e 38 -c 2 -a 0 -i 0 -k MAC
+ -t 0.569112417 -s 1 -d -1 -p ack -e 98 -c 2 -a 0 -i 13 -k MAC 
- -t 0.569112417 -s 1 -d -1 -p ack -e 98 -c 2 -a 0 -i 13 -k MAC
h -t 0.569112417 -s 1 -d -1 -p ack -e 98 -c 2 -a 0 -i 13 -k MAC
r -t 0.569896717 -s 0 -d -1 -p ack -e 40 -c 2 -a 0 -i 13 -k MAC
+ -t 0.569906717 -s 0 -d -1 -p ACK -e 38 -c 2 -a 0 -i 0 -k MAC 
- -t 0.569906717 -s 0 -d -1 -p ACK -e 38 -c 2 -a 0 -i 0 -k MAC
h -t 0.569906717 -s 0 -d -1 -p ACK -e 38 -c 2 -a 0 -i 0 -k MAC
r -t 0.570211017 -s 1 -d -1 -p ACK -e 38 -c 2 -a 0 -i 0 -k MAC
+ -t 0.570321300 -s 2 -d -1 -p tcp -e 1098 -c 2 -a 0 -i 12 -k MAC 
- -t 0.570321300 -s 2 -d -1 -p tcp -e 1098 -c 2 -a 0 -i 12 -k MAC
h -t 0.570321300 -s 2 -d -1 -p tcp -e 1098 -c 2 -a 0 -i 12 -k MAC
r -t 0.579105583 -s 1 -d -1 -p tcp -e 1040 -c 2 -a 0 -i 12 -k MAC
+ -t 0.579115583 -s 1 -d -1 -p ACK -e 38 -c 2 -a 0 -i 0 -k MAC 
- -t 0.579115583 -s 1 -d -1 -p ACK -e 38 -c 2 -a 0 -i 0 -k MAC
h -t 0.579115583 -s 1 -d -1 -p ACK -e 38 -c 2 -a 0 -i 0 -k MAC
r -t 0.579419867 -s 2 -d -1 -p ACK -e 38 -c 2 -a 0 -i 0 -k MAC
+ -t 0.579669883 -s 0 -d -1 -p tcp -e 1098 -c 2 -a 0 -i 17 -k MAC 
- -t 0.579669883 -s 0 -d -1 -p tcp -e 1098 -c 2 -a 0 -i 17 -k MAC
h -t 0.579669883 -s 0 -d -1 -p tcp -e 1098 -c 2 -a 0 -i 17 -k MAC
r -t 0.588454183 -s 1 -d -1 -p tcp -e 1040 -c 2 -a 0 -i 17 -k MAC
+ -t 0.588464183 -s 1 -d -1 -p ACK -e 38 -c 2 -a 0 -i 0 -k MAC 
- -t 0.588464183 -s 1 -d -1 -p ACK -e 38 -c 2 -a 0 -i 0 -k MAC
h -t 0.588464183 -s 1 -d -1 -p ACK -e 38 -c 2 -a 0 -i 0 -k MAC
r -t 0.588768483 -s 0 -d -1 -p ACK -e 38 -c 2 -a 0 -i 0 -k MAC
+ -t 0.589018467 -s 2 -d -1 -p tcp -e 1098 -c 2 -a 0 -i 14 -k MAC 
- -t 0.589018467 -s 2 -d -1 -p tcp -e 1098 -c 2 -a 0 -i 14 -k MAC
h -t 0.589018467 -s 2 -d -1 -p tcp -e 1098 -c 2 -a 0 -i 14 -k MAC
r -t 0.597802750 -s 1 -d -1 -p tcp -e 1040 -c 2 -a 0 -i 14 -k MAC
+ -t 0.597812750 -s 1 -d -1 -p ACK -e 38 -c 2 -a 0 -i 0 -k MAC 
- -t 0.597812750 -s 1 -d -1 -p ACK -e 38 -c 2 -a 0 -i 0 -k MAC
h -t 0.597812750 -s 1 -d -1 -p ACK -e 38 -c 2 -a 0 -i 0 -k MAC
r -t 0.598117033 -s 2 -d -1 -p ACK -e 38 -c 2 -a 0 -i 0 -k MAC
+ -t 0.598286750 -s 1 -d -1 -p ack -e 98 -c 2 -a 0 -i 18 -k MAC 
- -t 0.598286750 -s 1 -d -1 -p ack -e 98 -c 2 -a 0 -i 18 -k MAC
h -t 0.598286750 -s 1 -d -1 -p ack -e 98 -c 2 -a 0 -i 18 -k MAC
r -t 0.599071050 -s 0 -d -1 -p ack -e 40 -c 2 -a 0 -i 18 -k MAC
+ -t 0.599081050 -s 0 -d -1 -p ACK -e 38 -c 2 -a 0 -i 0 -k MAC 
- -t 0.599081050 -s 0 -d -1 -p ACK -e 38 -c 2 -a 0 -i 0 -k MAC
h -t 0.599081050 -s 0 -d -1 -p ACK -e 38 -c 2 -a 0 -i 0 -k MAC
r -t 0.599385350 -s 1 -d -1 -p ACK -e 38 -c 2 -a 0 -i 0 -k MAC
+ -t 0.599475350 -s 1 -d -1 -p ack -e 98 -c 2 -a 0 -i 19 -k MAC 
- -t 0.599475350 -s 1 -d -1 -p ack -e 98 -c 2 -a 0 -i 19 -k MAC
h -t 0.599475350 -s 1 -d -1 -p ack -e 98 -c 2 -a 0 -i 19 -k MAC
r -t 0.600259633 -s 2 -d -1 -p ack -e 40 -c 2 -a 0 -i 19 -k MAC
+ -t 0.600269633 -s 2 -d -1 -p ACK -e 38 -c 2 -a 0 -i 0 -k MAC 
- -t 0.600269633 -s 2 -d -1 -p ACK -e 38 -c 2 -a 0 -i 0 -k MAC
h -t 0.600269633 -s 2 -d -1 -p ACK -e 38 -c 2 -a 0 -i 0 -k MAC
r -t 0.600573917 -s 1 -d -1 -p ACK -e 38 -c 2 -a 0 -i 0 -k MAC
+ -t 0.600823633 -s 2 -d -1 -p tcp -e 1098 -c 2 -a 0 -i 15 -k MAC 
- -t 0.600823633 -s 2 -d -1 -p tcp -e 1098 -c 2 -a 0 -i 15 -k MAC
h -t 0.600823633 -s 2 -d -1 -p tcp -e 1098 -c 2 -a 0 -i 15 -k MAC
+ -t 0.600824217 -s 0 -d -1 -p tcp -e 1098 -c 2 -a 0 -i 20 -k MAC 
- -t 0.600824217 -s 0 -d -1 -p tcp -e 1098 -c 2 -a 0 -i 20 -k MAC
h -t 0.600824217 -s 0 -d -1 -p tcp -e 1098 -c 2 -a 0 -i 20 -k MAC
d -t 0.600824517 -s 1 -d -1 -p tcp -e 1098 -c 2 -a 0 -i 15 -k MAC
d -t 0.609608517 -s 1 -d -1 -p tcp -e 1098 -c 2 -a 0 -i 20 -k MAC
+ -t 0.610142517 -s 1 -d -1 -p ack -e 98 -c 2 -a 0 -i 22 -k MAC 
- -t 0.610142517 -s 1 -d -1 -p ack -e 98 -c 2 -a 0 -i 22 -k MAC
h -t 0.610142517 -s 1 -d -1 -p ack -e 98 -c 2 -a 0 -i 22 -k MAC
r -t 0.610926800 -s 2 -d -1 -p ack -e 40 -c 2 -a 0 -i 22 -k MAC
+ -t 0.610936800 -s 2 -d -1 -p ACK -e 38 -c 2 -a 0 -i 0 -k MAC 
- -t 0.610936800 -s 2 -d -1 -p ACK -e 38 -c 2 -a 0 -i 0 -k MAC
h -t 0.610936800 -s 2 -d -1 -p ACK -e 38 -c 2 -a 0 -i 0 -k MAC
r -t 0.611241083 -s 1 -d -1 -p ACK -e 38 -c 2 -a 0 -i 0 -k MAC
+ -t 0.611371083 -s 1 -d -1 -p ack -e 98 -c 2 -a 0 -i 23 -k MAC 
- -t 0.611371083 -s 1 -d -1 -p ack -e 98 -c 2 -a 0 -i 23 -k MAC
h -t 0.611371083 -s 1 -d -1 -p ack -e 98 -c 2 -a 0 -i 23 -k MAC
r -t 0.612155383 -s 0 -d -1 -p ack -e 40 -c 2 -a 0 -i 23 -k MAC
+ -t 0.612165383 -s 0 -d -1 -p ACK -e 38 -c 2 -a 0 -i 0 -k MAC 
- -t 0.612165383 -s 0 -d -1 -p ACK -e 38 -c 2 -a 0 -i 0 -k MAC
h -t 0.612165383 -s 0 -d -1 -p ACK -e 38 -c 2 -a 0 -i 0 -k MAC
r -t 0.612469683 -s 1 -d -1 -p ACK -e 38 -c 2 -a 0 -i 0 -k MAC
+ -t 0.612639383 -s 0 -d -1 -p tcp -e 1098 -c 2 -a 0 -i 20 -k MAC 
- -t 0.612639383 -s 0 -d -1 -p tcp -e 1098 -c 2 -a 0 -i 20 -k MAC
h -t 0.612639383 -s 0 -d -1 -p tcp -e 1098 -c 2 -a 0 -i 20 -k MAC
r -t 0.621423683 -s 1 -d -1 -p tcp -e 1040 -c 2 -a 0 -i 20 -k MAC
+ -t 0.621433683 -s 1 -d -1 -p ACK -e 38 -c 2 -a 0 -i 0 -k MAC 
- -t 0.621433683 -s 1 -d -1 -p ACK -e 38 -c 2 -a 0 -i 0 -k MAC
h -t 0.621433683 -s 1 -d -1 -p ACK -e 38 -c 2 -a 0 -i 0 -k MAC
r -t 0.621737983 -s 0 -d -1 -p ACK -e 38 -c 2 -a 0 -i 0 -k MAC
+ -t 0.621947683 -s 1 -d -1 -p ack -e 98 -c 2 -a 0 -i 24 -k MAC 
- -t 0.621947683 -s 1 -d -1 -p ack -e 98 -c 2 -a 0 -i 24 -k MAC
h -t 0.621947683 -s 1 -d -1 -p ack -e 98 -c 2 -a 0 -i 24 -k MAC
r -t 0.622731967 -s 2 -d -1 -p ack -e 40 -c 2 -a 0 -i 24 -k MAC
+ -t 0.622741967 -s 2 -d -1 -p ACK -e 38 -c 2 -a 0 -i 0 -k MAC 
- -t 0.622741967 -s 2 -d -1 -p ACK -e 38 -c 2 -a 0 -i 0 -k MAC
h -t 0.622741967 -s 2 -d -1 -p ACK -e 38 -c 2 -a 0 -i 0 -k MAC
r -t 0.623046250 -s 1 -d -1 -p ACK -e 38 -c 2 -a 0 -i 0 -k MAC
+ -t 0.623136550 -s 0 -d -1 -p tcp -e 1098 -c 2 -a 0 -i 21 -k MAC 
- -t 0.623136550 -s 0 -d -1 -p tcp -e 1098 -c 2 -a 0 -i 21 -k MAC
h -t 0.623136550 -s 0 -d -1 -p tcp -e 1098 -c 2 -a 0 -i 21 -k MAC
r -t 0.631920850 -s 1 -d -1 -p tcp -e 1040 -c 2 -a 0 -i 21 -k MAC
+ -t 0.631930850 -s 1 -d -1 -p ACK -e 38 -c 2 -a 0 -i 0 -k MAC 
- -t 0.631930850 -s 1 -d -1 -p ACK -e 38 -c 2 -a 0 -i 0 -k MAC
h -t 0.631930850 -s 1 -d -1 -p ACK -e 38 -c 2 -a 0 -i 0 -k MAC
r -t 0.632235150 -s 0 -d -1 -p ACK -e 38 -c 2 -a 0 -i 0 -k MAC
+ -t 0.632344850 -s 1 -d -1 -p ack -e 98 -c 2 -a 0 -i 33 -k MAC 
- -t 0.632344850 -s 1 -d -1 -p ack -e 98 -c 2 -a 0 -i 33 -k MAC
h -t 0.632344850 -s 1 -d -1 -p ack -e 98 -c 2 -a 0 -i 33 -k MAC
r -t 0.633129150 -s 0 -d -1 -p ack -e 40 -c 2 -a 0 -i 33 -k MAC
+ -t 0.633139150 -s 0 -d -1 -p ACK -e 38 -c 2 -a 0 -i 0 -k MAC 
- -t 0.633139150 -s 0 -d -1 -p ACK -e 38 -c 2 -a 0 -i 0 -k MAC
h -t 0.633139150 -s 0 -d -1 -p ACK -e 38 -c 2 -a 0 -i 0 -k MAC
r -t 0.633443450 -s 1 -d -1 -p ACK -e 38 -c 2 -a 0 -i 0 -k MAC
+ -t 0.633653733 -s 2 -d -1 -p tcp -e 1098 -c 2 -a 0 -i 15 -k MAC 
- -t 0.633653733 -s 2 -d -1 -p tcp -e 1098 -c 2 -a 0 -i 15 -k MAC
h -t 0.633653733 -s 2 -d -1 -p tcp -e 1098 -c 2 -a 0 -i 15 -k MAC
r -t 0.642438017 -s 1 -d -1 -p tcp -e 1040 -c 2 -a 0 -i 15 -k MAC
+ -t 0.642448017 -s 1 -d -1 -p ACK -e 38 -c 2 -a 0 -i 0 -k MAC 
- -t 0.642448017 -s 1 -d -1 -p ACK -e 38 -c 2 -a 0 -i 0 -k MAC
h -t 0.642448017 -s 1 -d -1 -p ACK -e 38 -c 2 -a 0 -i 0 -k MAC
r -t 0.642752300 -s 2 -d -1 -p ACK -e 38 -c 2 -a 0 -i 0 -k MAC
+ -t 0.642862017 -s 1 -d -1 -p ack -e 98 -c 2 -a 0 -i 36 -k MAC 
- -t 0.642862017 -s 1 -d -1 -p ack -e 98 -c 2 -a 0 -i 36 -k MAC
h -t 0.642862017 -s 1 -d -1 -p ack -e 98 -c 2 -a 0 -i 36 -k MAC
r -t 0.643646317 -s 0 -d -1 -p ack -e 40 -c 2 -a 0 -i 36 -k MAC
+ -t 0.643656317 -s 0 -d -1 -p ACK -e 38 -c 2 -a 0 -i 0 -k MAC 
- -t 0.643656317 -s 0 -d -1 -p ACK -e 38 -c 2 -a 0 -i 0 -k MAC
h -t 0.643656317 -s 0 -d -1 -p ACK -e 38 -c 2 -a 0 -i 0 -k MAC
r -t 0.643960617 -s 1 -d -1 -p ACK -e 38 -c 2 -a 0 -i 0 -k MAC
+ -t 0.644150900 -s 2 -d -1 -p tcp -e 1098 -c 2 -a 0 -i 27 -k MAC 
- -t 0.644150900 -s 2 -d -1 -p tcp -e 1098 -c 2 -a 0 -i 27 -k MAC
h -t 0.644150900 -s 2 -d -1 -p tcp -e 1098 -c 2 -a 0 -i 27 -k MAC
r -t 0.652935183 -s 1 -d -1 -p tcp -e 1040 -c 2 -a 0 -i 27 -k MAC
+ -t 0.652945183 -s 1 -d -1 -p ACK -e 38 -c 2 -a 0 -i 0 -k MAC 
- -t 0.652945183 -s 1 -d -1 -p ACK -e 38 -c 2 -a 0 -i 0 -k MAC
h -t 0.652945183 -s 1 -d -1 -p ACK -e 38 -c 2 -a 0 -i 0 -k MAC
r -t 0.653249467 -s 2 -d -1 -p ACK -e 38 -c 2 -a 0 -i 0 -k MAC
+ -t 0.653359467 -s 2 -d -1 -p tcp -e 1098 -c 2 -a 0 -i 28 -k MAC 
- -t 0.653359467 -s 2 -d -1 -p tcp -e 1098 -c 2 -a 0 -i 28 -k MAC
h -t 0.653359467 -s 2 -d -1 -p tcp -e 1098 -c 2 -a 0 -i 28 -k MAC
r -t 0.662143750 -s 1 -d -1 -p tcp -e 1040 -c 2 -a 0 -i 28 -k MAC
+ -t 0.662153750 -s 1 -d -1 -p ACK -e 38 -c 2 -a 0 -i 0 -k MAC 
- -t 0.662153750 -s 1 -d -1 -p ACK -e 38 -c 2 -a 0 -i 0 -k MAC
h -t 0.662153750 -s 1 -d -1 -p ACK -e 38 -c 2 -a 0 -i 0 -k MAC
r -t 0.662458033 -s 2 -d -1 -p ACK -e 38 -c 2 -a 0 -i 0 -k MAC
+ -t 0.662568050 -s 0 -d -1 -p tcp -e 1098 -c 2 -a 0 -i 25 -k MAC 
- -t 0.662568050 -s 0 -d -1 -p tcp -e 1098 -c 2 -a 0 -i 25 -k MAC
h -t 0.662568050 -s 0 -d -1 -p tcp -e 1098 -c 2 -a 0 -i 25 -k MAC
r -t 0.671352350 -s 1 -d -1 -p tcp -e 1040 -c 2 -a 0 -i 25 -k MAC
+ -t 0.671362350 -s 1 -d -1 -p ACK -e 38 -c 2 -a 0 -i 0 -k MAC 
- -t 0.671362350 -s 1 -d -1 -p ACK -e 38 -c 2 -a 0 -i 0 -k MAC
h -t 0.671362350 -s 1 -d -1 -p ACK -e 38 -c 2 -a 0 -i 0 -k MAC
r -t 0.671666650 -s 0 -d -1 -p ACK -e 38 -c 2 -a 0 -i 0 -k MAC
+ -t 0.671776633 -s 2 -d -1 -p tcp -e 1098 -c 2 -a 0 -i 29 -k MAC 
- -t 0.671776633 -s 2 -d -1 -p tcp -e 1098 -c 2 -a 0 -i 29 -k MAC
h -t 0.671776633 -s 2 -d -1 -p tcp -e 1098 -c 2 -a 0 -i 29 -k MAC
r -t 0.680560917 -s 1 -d -1 -p tcp -e 1040 -c 2 -a 0 -i 29 -k MAC
+ -t 0.680570917 -s 1 -d -1 -p ACK -e 38 -c 2 -a 0 -i 0 -k MAC 
- -t 0.680570917 -s 1 -d -1 -p ACK -e 38 -c 2 -a 0 -i 0 -k MAC
h -t 0.680570917 -s 1 -d -1 -p ACK -e 38 -c 2 -a 0 -i 0 -k MAC
r -t 0.680875200 -s 2 -d -1 -p ACK -e 38 -c 2 -a 0 -i 0 -k MAC
+ -t 0.681184917 -s 1 -d -1 -p ack -e 98 -c 2 -a 0 -i 39 -k MAC 
- -t 0.681184917 -s 1 -d -1 -p ack -e 98 -c 2 -a 0 -i 39 -k MAC
h -t 0.681184917 -s 1 -d -1 -p ack -e 98 -c 2 -a 0 -i 39 -k MAC
r -t 0.681969200 -s 2 -d -1 -p ack -e 40 -c 2 -a 0 -i 39 -k MAC
+ -t 0.681979200 -s 2 -d -1 -p ACK -e 38 -c 2 -a 0 -i 0 -k MAC 
- -t 0.681979200 -s 2 -d -1 -p ACK -e 38 -c 2 -a 0 -i 0 -k MAC
h -t 0.681979200 -s 2 -d -1 -p ACK -e 38 -c 2 -a 0 -i 0 -k MAC
r -t 0.682283483 -s 1 -d -1 -p ACK -e 38 -c 2 -a 0 -i 0 -k MAC
+ -t 0.682373783 -s 0 -d -1 -p tcp -e 1098 -c 2 -a 0 -i 26 -k MAC 
- -t 0.682373783 -s 0 -d -1 -p tcp -e 1098 -c 2 -a 0 -i 26 -k MAC
h -t 0.682373783 -s 0 -d -1 -p tcp -e 1098 -c 2 -a 0 -i 26 -k MAC
r -t 0.691158083 -s 1 -d -1 -p tcp -e 1040 -c 2 -a 0 -i 26 -k MAC
+ -t 0.691168083 -s 1 -d -1 -p ACK -e 38 -c 2 -a 0 -i 0 -k MAC 
- -t 0.691168083 -s 1 -d -1 -p ACK -e 38 -c 2 -a 0 -i 0 -k MAC
h -t 0.691168083 -s 1 -d -1 -p ACK -e 38 -c 2 -a 0 -i 0 -k MAC
r -t 0.691472383 -s 0 -d -1 -p ACK -e 38 -c 2 -a 0 -i 0 -k MAC
+ -t 0.691702383 -s 0 -d -1 -p tcp -e 1098 -c 2 -a 0 -i 31 -k MAC 
- -t 0.691702383 -s 0 -d -1 -p tcp -e 1098 -c 2 -a 0 -i 31 -k MAC
h -t 0.691702383 -s 0 -d -1 -p tcp -e 1098 -c 2 -a 0 -i 31 -k MAC
r -t 0.700486683 -s 1 -d -1 -p tcp -e 1040 -c 2 -a 0 -i 31 -k MAC
+ -t 0.700496683 -s 1 -d -1 -p ACK -e 38 -c 2 -a 0 -i 0 -k MAC 
- -t 0.700496683 -s 1 -d -1 -p ACK -e 38 -c 2 -a 0 -i 0 -k MAC
h -t 0.700496683 -s 1 -d -1 -p ACK -e 38 -c 2 -a 0 -i 0 -k MAC
r -t 0.700800983 -s 0 -d -1 -p ACK -e 38 -c 2 -a 0 -i 0 -k MAC
+ -t 0.700870967 -s 2 -d -1 -p tcp -e 1098 -c 2 -a 0 -i 30 -k MAC 
- -t 0.700870967 -s 2 -d -1 -p tcp -e 1098 -c 2 -a 0 -i 30 -k MAC
h -t 0.700870967 -s 2 -d -1 -p tcp -e 1098 -c 2 -a 0 -i 30 -k MAC
r -t 0.709655250 -s 1 -d -1 -p tcp -e 1040 -c 2 -a 0 -i 30 -k MAC
+ -t 0.709665250 -s 1 -d -1 -p ACK -e 38 -c 2 -a 0 -i 0 -k MAC 
- -t 0.709665250 -s 1 -d -1 -p ACK -e 38 -c 2 -a 0 -i 0 -k MAC
h -t 0.709665250 -s 1 -d -1 -p ACK -e 38 -c 2 -a 0 -i 0 -k MAC
r -t 0.709969533 -s 2 -d -1 -p ACK -e 38 -c 2 -a 0 -i 0 -k MAC
+ -t 0.710059250 -s 1 -d -1 -p ack -e 98 -c 2 -a 0 -i 42 -k MAC 
- -t 0.710059250 -s 1 -d -1 -p ack -e 98 -c 2 -a 0 -i 42 -k MAC
h -t 0.710059250 -s 1 -d -1 -p ack -e 98 -c 2 -a 0 -i 42 -k MAC
r -t 0.710843533 -s 2 -d -1 -p ack -e 40 -c 2 -a 0 -i 42 -k MAC
+ -t 0.710853533 -s 2 -d -1 -p ACK -e 38 -c 2 -a 0 -i 0 -k MAC 
- -t 0.710853533 -s 2 -d -1 -p ACK -e 38 -c 2 -a 0 -i 0 -k MAC
h -t 0.710853533 -s 2 -d -1 -p ACK -e 38 -c 2 -a 0 -i 0 -k MAC
r -t 0.711157817 -s 1 -d -1 -p ACK -e 38 -c 2 -a 0 -i 0 -k MAC
+ -t 0.711207817 -s 1 -d -1 -p ack -e 98 -c 2 -a 0 -i 43 -k MAC 
- -t 0.711207817 -s 1 -d -1 -p ack -e 98 -c 2 -a 0 -i 43 -k MAC
h -t 0.711207817 -s 1 -d -1 -p ack -e 98 -c 2 -a 0 -i 43 -k MAC
r -t 0.711992100 -s 2 -d -1 -p ack -e 40 -c 2 -a 0 -i 43 -k MAC
+ -t 0.712002100 -s 2 -d -1 -p ACK -e 38 -c 2 -a 0 -i 0 -k MAC 
- -t 0.712002100 -s 2 -d -1 -p ACK -e 38 -c 2 -a 0 -i 0 -k MAC
h -t 0.712002100 -s 2 -d -1 -p ACK -e 38 -c 2 -a 0 -i 0 -k MAC
r -t 0.712306383 -s 1 -d -1 -p ACK -e 38 -c 2 -a 0 -i 0 -k MAC
+ -t 0.712576383 -s 1 -d -1 -p ack -e 98 -c 2 -a 0 -i 44 -k MAC 
- -t 0.712576383 -s 1 -d -1 -p ack -e 98 -c 2 -a 0 -i 44 -k MAC
h -t 0.712576383 -s 1 -d -1 -p ack -e 98 -c 2 -a 0 -i 44 -k MAC
r -t 0.713360683 -s 0 -d -1 -p ack -e 40 -c 2 -a 0 -i 44 -k MAC
+ -t 0.713370683 -s 0 -d -1 -p ACK -e 38 -c 2 -a 0 -i 0 -k MAC 
- -t 0.713370683 -s 0 -d -1 -p ACK -e 38 -c 2 -a 0 -i 0 -k MAC
h -t 0.713370683 -s 0 -d -1 -p ACK -e 38 -c 2 -a 0 -i 0 -k MAC
r -t 0.713674983 -s 1 -d -1 -p ACK -e 38 -c 2 -a 0 -i 0 -k MAC
+ -t 0.713764683 -s 0 -d -1 -p tcp -e 1098 -c 2 -a 0 -i 32 -k MAC 
- -t 0.713764683 -s 0 -d -1 -p tcp -e 1098 -c 2 -a 0 -i 32 -k MAC
h -t 0.713764683 -s 0 -d -1 -p tcp -e 1098 -c 2 -a 0 -i 32 -k MAC
r -t 0.722548983 -s 1 -d -1 -p tcp -e 1040 -c 2 -a 0 -i 32 -k MAC
+ -t 0.722558983 -s 1 -d -1 -p ACK -e 38 -c 2 -a 0 -i 0 -k MAC 
- -t 0.722558983 -s 1 -d -1 -p ACK -e 38 -c 2 -a 0 -i 0 -k MAC
h -t 0.722558983 -s 1 -d -1 -p ACK -e 38 -c 2 -a 0 -i 0 -k MAC
r -t 0.722863283 -s 0 -d -1 -p ACK -e 38 -c 2 -a 0 -i 0 -k MAC
+ -t 0.723073283 -s 0 -d -1 -p tcp -e 1098 -c 2 -a 0 -i 37 -k MAC 
- -t 0.723073283 -s 0 -d -1 -p tcp -e 1098 -c 2 -a 0 -i 37 -k MAC
h -t 0.723073283 -s 0 -d -1 -p tcp -e 1098 -c 2 -a 0 -i 37 -k MAC
r -t 0.731857583 -s 1 -d -1 -p tcp -e 1040 -c 2 -a 0 -i 37 -k MAC
+ -t 0.731867583 -s 1 -d -1 -p ACK -e 38 -c 2 -a 0 -i 0 -k MAC 
- -t 0.731867583 -s 1 -d -1 -p ACK -e 38 -c 2 -a 0 -i 0 -k MAC
h -t 0.731867583 -s 1 -d -1 -p ACK -e 38 -c 2 -a 0 -i 0 -k MAC
r -t 0.732171883 -s 0 -d -1 -p ACK -e 38 -c 2 -a 0 -i 0 -k MAC
+ -t 0.732241867 -s 2 -d -1 -p tcp -e 1098 -c 2 -a 0 -i 34 -k MAC 
- -t 0.732241867 -s 2 -d -1 -p tcp -e 1098 -c 2 -a 0 -i 34 -k MAC
h -t 0.732241867 -s 2 -d -1 -p tcp -e 1098 -c 2 -a 0 -i 34 -k MAC
r -t 0.741026150 -s 1 -d -1 -p tcp -e 1040 -c 2 -a 0 -i 34 -k MAC
+ -t 0.741036150 -s 1 -d -1 -p ACK -e 38 -c 2 -a 0 -i 0 -k MAC 
- -t 0.741036150 -s 1 -d -1 -p ACK -e 38 -c 2 -a 0 -i 0 -k MAC
h -t 0.741036150 -s 1 -d -1 -p ACK -e 38 -c 2 -a 0 -i 0 -k MAC
r -t 0.741340433 -s 2 -d -1 -p ACK -e 38 -c 2 -a 0 -i 0 -k MAC
+ -t 0.741470433 -s 2 -d -1 -p tcp -e 1098 -c 2 -a 0 -i 35 -k MAC 
- -t 0.741470433 -s 2 -d -1 -p tcp -e 1098 -c 2 -a 0 -i 35 -k MAC
h -t 0.741470433 -s 2 -d -1 -p tcp -e 1098 -c 2 -a 0 -i 35 -k MAC
r -t 0.750254717 -s 1 -d -1 -p tcp -e 1040 -c 2 -a 0 -i 35 -k MAC
+ -t 0.750264717 -s 1 -d -1 -p ACK -e 38 -c 2 -a 0 -i 0 -k MAC 
- -t 0.750264717 -s 1 -d -1 -p ACK -e 38 -c 2 -a 0 -i 0 -k MAC
h -t 0.750264717 -s 1 -d -1 -p ACK -e 38 -c 2 -a 0 -i 0 -k MAC
r -t 0.750569000 -s 2 -d -1 -p ACK -e 38 -c 2 -a 0 -i 0 -k MAC
+ -t 0.750638717 -s 1 -d -1 -p ack -e 98 -c 2 -a 0 -i 45 -k MAC 
- -t 0.750638717 -s 1 -d -1 -p ack -e 98 -c 2 -a 0 -i 45 -k MAC
h -t 0.750638717 -s 1 -d -1 -p ack -e 98 -c 2 -a 0 -i 45 -k MAC
r -t 0.751423000 -s 2 -d -1 -p ack -e 40 -c 2 -a 0 -i 45 -k MAC
+ -t 0.751433000 -s 2 -d -1 -p ACK -e 38 -c 2 -a 0 -i 0 -k MAC 
- -t 0.751433000 -s 2 -d -1 -p ACK -e 38 -c 2 -a 0 -i 0 -k MAC
h -t 0.751433000 -s 2 -d -1 -p ACK -e 38 -c 2 -a 0 -i 0 -k MAC
r -t 0.751737283 -s 1 -d -1 -p ACK -e 38 -c 2 -a 0 -i 0 -k MAC
+ -t 0.751787283 -s 1 -d -1 -p ack -e 98 -c 2 -a 0 -i 48 -k MAC 
- -t 0.751787283 -s 1 -d -1 -p ack -e 98 -c 2 -a 0 -i 48 -k MAC
h -t 0.751787283 -s 1 -d -1 -p ack -e 98 -c 2 -a 0 -i 48 -k MAC
r -t 0.752571583 -s 0 -d -1 -p ack -e 40 -c 2 -a 0 -i 48 -k MAC
+ -t 0.752581583 -s 0 -d -1 -p ACK -e 38 -c 2 -a 0 -i 0 -k MAC 
- -t 0.752581583 -s 0 -d -1 -p ACK -e 38 -c 2 -a 0 -i 0 -k MAC
h -t 0.752581583 -s 0 -d -1 -p ACK -e 38 -c 2 -a 0 -i 0 -k MAC
r -t 0.752885883 -s 1 -d -1 -p ACK -e 38 -c 2 -a 0 -i 0 -k MAC
+ -t 0.753055583 -s 0 -d -1 -p tcp -e 1098 -c 2 -a 0 -i 38 -k MAC 
- -t 0.753055583 -s 0 -d -1 -p tcp -e 1098 -c 2 -a 0 -i 38 -k MAC
h -t 0.753055583 -s 0 -d -1 -p tcp -e 1098 -c 2 -a 0 -i 38 -k MAC
r -t 0.761839883 -s 1 -d -1 -p tcp -e 1040 -c 2 -a 0 -i 38 -k MAC
+ -t 0.761849883 -s 1 -d -1 -p ACK -e 38 -c 2 -a 0 -i 0 -k MAC 
- -t 0.761849883 -s 1 -d -1 -p ACK -e 38 -c 2 -a 0 -i 0 -k MAC
h -t 0.761849883 -s 1 -d -1 -p ACK -e 38 -c 2 -a 0 -i 0 -k MAC
r -t 0.762154183 -s 0 -d -1 -p ACK -e 38 -c 2 -a 0 -i 0 -k MAC
+ -t 0.762323883 -s 1 -d -1 -p ack -e 98 -c 2 -a 0 -i 49 -k MAC 
- -t 0.762323883 -s 1 -d -1 -p ack -e 98 -c 2 -a 0 -i 49 -k MAC
h -t 0.762323883 -s 1 -d -1 -p ack -e 98 -c 2 -a 0 -i 49 -k MAC
r -t 0.763108183 -s 0 -d -1 -p ack -e 40 -c 2 -a 0 -i 49 -k MAC
+ -t 0.763118183 -s 0 -d -1 -p ACK -e 38 -c 2 -a 0 -i 0 -k MAC 
- -t 0.763118183 -s 0 -d -1 -p ACK -e 38 -c 2 -a 0 -i 0 -k MAC
h -t 0.763118183 -s 0 -d -1 -p ACK -e 38 -c 2 -a 0 -i 0 -k MAC
r -t 0.763422483 -s 1 -d -1 -p ACK -e 38 -c 2 -a 0 -i 0 -k MAC
+ -t 0.763532767 -s 2 -d -1 -p tcp -e 1098 -c 2 -a 0 -i 46 -k MAC 
- -t 0.763532767 -s 2 -d -1 -p tcp -e 1098 -c 2 -a 0 -i 46 -k MAC
h -t 0.763532767 -s 2 -d -1 -p tcp -e 1098 -c 2 -a 0 -i 46 -k MAC
r -t 0.772317050 -s 1 -d -1 -p tcp -e 1040 -c 2 -a 0 -i 46 -k MAC
+ -t 0.772327050 -s 1 -d -1 -p ACK -e 38 -c 2 -a 0 -i 0 -k MAC 
- -t 0.772327050 -s 1 -d -1 -p ACK -e 38 -c 2 -a 0 -i 0 -k MAC
h -t 0.772327050 -s 1 -d -1 -p ACK -e 38 -c 2 -a 0 -i 0 -k MAC
r -t 0.772631333 -s 2 -d -1 -p ACK -e 38 -c 2 -a 0 -i 0 -k MAC
+ -t 0.772701333 -s 2 -d -1 -p tcp -e 1098 -c 2 -a 0 -i 47 -k MAC 
- -t 0.772701333 -s 2 -d -1 -p tcp -e 1098 -c 2 -a 0 -i 47 -k MAC
h -t 0.772701333 -s 2 -d -1 -p tcp -e 1098 -c 2 -a 0 -i 47 -k MAC
r -t 0.781485617 -s 1 -d -1 -p tcp -e 1040 -c 2 -a 0 -i 47 -k MAC
+ -t 0.781495617 -s 1 -d -1 -p ACK -e 38 -c 2 -a 0 -i 0 -k MAC 
- -t 0.781495617 -s 1 -d -1 -p ACK -e 38 -c 2 -a 0 -i 0 -k MAC
h -t 0.781495617 -s 1 -d -1 -p ACK -e 38 -c 2 -a 0 -i 0 -k MAC
r -t 0.781799900 -s 2 -d -1 -p ACK -e 38 -c 2 -a 0 -i 0 -k MAC
+ -t 0.781949917 -s 0 -d -1 -p tcp -e 1098 -c 2 -a 0 -i 40 -k MAC 
- -t 0.781949917 -s 0 -d -1 -p tcp -e 1098 -c 2 -a 0 -i 40 -k MAC
h -t 0.781949917 -s 0 -d -1 -p tcp -e 1098 -c 2 -a 0 -i 40 -k MAC
r -t 0.790734217 -s 1 -d -1 -p tcp -e 1040 -c 2 -a 0 -i 40 -k MAC
+ -t 0.790744217 -s 1 -d -1 -p ACK -e 38 -c 2 -a 0 -i 0 -k MAC 
- -t 0.790744217 -s 1 -d -1 -p ACK -e 38 -c 2 -a 0 -i 0 -k MAC
h -t 0.790744217 -s 1 -d -1 -p ACK -e 38 -c 2 -a 0 -i 0 -k MAC
r -t 0.791048517 -s 0 -d -1 -p ACK -e 38 -c 2 -a 0 -i 0 -k MAC
+ -t 0.791198217 -s 1 -d -1 -p ack -e 98 -c 2 -a 0 -i 50 -k MAC 
- -t 0.791198217 -s 1 -d -1 -p ack -e 98 -c 2 -a 0 -i 50 -k MAC
h -t 0.791198217 -s 1 -d -1 -p ack -e 98 -c 2 -a 0 -i 50 -k MAC
r -t 0.791982500 -s 2 -d -1 -p ack -e 40 -c 2 -a 0 -i 50 -k MAC
+ -t 0.791992500 -s 2 -d -1 -p ACK -e 38 -c 2 -a 0 -i 0 -k MAC 
- -t 0.791992500 -s 2 -d -1 -p ACK -e 38 -c 2 -a 0 -i 0 -k MAC
h -t 0.791992500 -s 2 -d -1 -p ACK -e 38 -c 2 -a 0 -i 0 -k MAC
r -t 0.792296783 -s 1 -d -1 -p ACK -e 38 -c 2 -a 0 -i 0 -k MAC
+ -t 0.792466783 -s 1 -d -1 -p ack -e 98 -c 2 -a 0 -i 57 -k MAC 
- -t 0.792466783 -s 1 -d -1 -p ack -e 98 -c 2 -a 0 -i 57 -k MAC
h -t 0.792466783 -s 1 -d -1 -p ack -e 98 -c 2 -a 0 -i 57 -k MAC
r -t 0.793251083 -s 0 -d -1 -p ack -e 40 -c 2 -a 0 -i 57 -k MAC
+ -t 0.793261083 -s 0 -d -1 -p ACK -e 38 -c 2 -a 0 -i 0 -k MAC 
- -t 0.793261083 -s 0 -d -1 -p ACK -e 38 -c 2 -a 0 -i 0 -k MAC
h -t 0.793261083 -s 0 -d -1 -p ACK -e 38 -c 2 -a 0 -i 0 -k MAC
r -t 0.793565383 -s 1 -d -1 -p ACK -e 38 -c 2 -a 0 -i 0 -k MAC
+ -t 0.793655083 -s 0 -d -1 -p tcp -e 1098 -c 2 -a 0 -i 41 -k MAC 
- -t 0.793655083 -s 0 -d -1 -p tcp -e 1098 -c 2 -a 0 -i 41 -k MAC
h -t 0.793655083 -s 0 -d -1 -p tcp -e 1098 -c 2 -a 0 -i 41 -k MAC
r -t 0.802439383 -s 1 -d -1 -p tcp -e 1040 -c 2 -a 0 -i 41 -k MAC
+ -t 0.802449383 -s 1 -d -1 -p ACK -e 38 -c 2 -a 0 -i 0 -k MAC 
- -t 0.802449383 -s 1 -d -1 -p ACK -e 38 -c 2 -a 0 -i 0 -k MAC
h -t 0.802449383 -s 1 -d -1 -p ACK -e 38 -c 2 -a 0 -i 0 -k MAC
r -t 0.802753683 -s 0 -d -1 -p ACK -e 38 -c 2 -a 0 -i 0 -k MAC
+ -t 0.802843683 -s 0 -d -1 -p tcp -e 1098 -c 2 -a 0 -i 55 -k MAC 
- -t 0.802843683 -s 0 -d -1 -p tcp -e 1098 -c 2 -a 0 -i 55 -k MAC
h -t 0.802843683 -s 0 -d -1 -p tcp -e 1098 -c 2 -a 0 -i 55 -k MAC
r -t 0.811627983 -s 1 -d -1 -p tcp -e 1040 -c 2 -a 0 -i 55 -k MAC
+ -t 0.811637983 -s 1 -d -1 -p ACK -e 38 -c 2 -a 0 -i 0 -k MAC 
- -t 0.811637983 -s 1 -d -1 -p ACK -e 38 -c 2 -a 0 -i 0 -k MAC
h -t 0.811637983 -s 1 -d -1 -p ACK -e 38 -c 2 -a 0 -i 0 -k MAC
r -t 0.811942283 -s 0 -d -1 -p ACK -e 38 -c 2 -a 0 -i 0 -k MAC
+ -t 0.812092267 -s 2 -d -1 -p tcp -e 1098 -c 2 -a 0 -i 51 -k MAC 
- -t 0.812092267 -s 2 -d -1 -p tcp -e 1098 -c 2 -a 0 -i 51 -k MAC
h -t 0.812092267 -s 2 -d -1 -p tcp -e 1098 -c 2 -a 0 -i 51 -k MAC
r -t 0.820876550 -s 1 -d -1 -p tcp -e 1040 -c 2 -a 0 -i 51 -k MAC