M 0.00000 0 (15.00, 15.00, 0.00), (50.00, 50.00), 10.00
M 0.00000 2 (200.00, 200.00, 0.00), (180.00, 180.00), 10.00
s 0.501805000 _0_ MAC  --- 0 ARP 28 [0 0 ffff0608 0] ------- [REQUEST 0/0 0/1]
r 0.501917384 _1_ MAC  --- 0 ARP 28 [0 0 ffff0608 0] ------- [REQUEST 0/0 0/1]
D 0.501917839 _2_ MAC  ERR 0 ARP 28 [0 0 ffff0608 0] ------- [REQUEST 0/0 0/1]
s 0.503672384 _1_ MAC  --- 0 ARP 28 [0 1000000 608 0] ------- [REPLY 1/1 0/0]
r 0.503784768 _0_ MAC  --- 0 ARP 28 [0 1000000 608 0] ------- [REPLY 1/1 0/0]
s 0.504939768 _0_ MAC  --- 0 tcp 40 [0 0 8 0] ------- [0:0 1:0 32 0] [0 0] 0 0
r 0.505100152 _1_ MAC  --- 0 tcp 40 [0 0 8 0] ------- [0:0 1:0 32 0] [0 0] 0 0
s 0.506550152 _1_ MAC  --- 1 ack 40 [0 1000000 8 0] ------- [1:0 0:0 32 0] [0 0] 0 0
r 0.506710536 _0_ MAC  --- 1 ack 40 [0 1000000 8 0] ------- [1:0 0:0 32 0] [0 0] 0 0
s 0.507110536 _0_ MAC  --- 2 tcp 1040 [0 0 8 0] ------- [0:0 1:0 32 0] [1 0] 0 0
r 0.511270919 _1_ MAC  --- 2 tcp 1040 [0 0 8 0] ------- [0:0 1:0 32 0] [1 0] 0 0
s 0.511720536 _0_ MAC  --- 3 tcp 1040 [0 0 8 0] ------- [0:0 1:0 32 0] [2 0] 0 0
s 0.512570919 _1_ MAC  --- 4 ack 40 [0 1000000 8 0] ------- [1:0 0:0 32 0] [1 0] 0 0
r 0.515880919 _1_ MAC  --- 3 tcp 1040 [0 0 8 0] ------- [0:0 1:0 32 0] [2 0] 0 0
D 0.515881374 _2_ MAC  COL 3 tcp 1040 [0 0 8 0] ------- [0:0 1:0 32 0] [2 0] 0 0
s 0.516330919 _1_ MAC  --- 5 ack 40 [0 1000000 8 0] ------- [1:0 0:0 32 0] [2 0] 0 0
r 0.516491303 _0_ MAC  --- 5 ack 40 [0 1000000 8 0] ------- [1:0 0:0 32 0] [2 0] 0 0
s 0.517641303 _0_ MAC  --- 6 tcp 1040 [0 0 8 0] ------- [0:0 1:0 32 0] [3 0] 0 0
r 0.521801686 _1_ MAC  --- 6 tcp 1040 [0 0 8 0] ------- [0:0 1:0 32 0] [3 0] 0 0
s 0.522651686 _1_ MAC  --- 9 ack 40 [0 1000000 8 0] ------- [1:0 0:0 32 0] [3 0] 0 0
r 0.522812069 _0_ MAC  --- 9 ack 40 [0 1000000 8 0] ------- [1:0 0:0 32 0] [3 0] 0 0
s 0.523751303 _0_ MAC  --- 7 tcp 1040 [0 0 8 0] ------- [0:0 1:0 32 0] [4 0] 0 0
r 0.527911686 _1_ MAC  --- 7 tcp 1040 [0 0 8 0] ------- [0:0 1:0 32 0] [4 0] 0 0
s 0.528511303 _0_ MAC  --- 8 tcp 1040 [0 0 8 0] ------- [0:0 1:0 32 0] [5 0] 0 0
s 0.529511686 _1_ MAC  --- 12 ack 40 [0 1000000 8 0] ------- [1:0 0:0 32 0] [4 0] 0 0
r 0.532671686 _1_ MAC  --- 8 tcp 1040 [0 0 8 0] ------- [0:0 1:0 32 0] [5 0] 0 0
D 0.532672140 _2_ MAC  COL 8 tcp 1040 [0 0 8 0] ------- [0:0 1:0 32 0] [5 0] 0 0
s 0.533271686 _1_ MAC  --- 13 ack 40 [0 1000000 8 0] ------- [1:0 0:0 32 0] [5 0] 0 0
r 0.533432069 _0_ MAC  --- 13 ack 40 [0 1000000 8 0] ------- [1:0 0:0 32 0] [5 0] 0 0
s 0.534271303 _0_ MAC  --- 10 tcp 1040 [0 0 8 0] ------- [0:0 1:0 32 0] [6 0] 0 0
r 0.538431686 _1_ MAC  --- 10 tcp 1040 [0 0 8 0] ------- [0:0 1:0 32 0] [6 0] 0 0
s 0.539681686 _1_ MAC  --- 17 ack 40 [0 1000000 8 0] ------- [1:0 0:0 32 0] [6 0] 0 0
r 0.539842068 _0_ MAC  --- 17 ack 40 [0 1000000 8 0] ------- [1:0 0:0 32 0] [6 0] 0 0
s 0.540081303 _0_ MAC  --- 11 tcp 1040 [0 0 8 0] ------- [0:0 1:0 32 0] [7 0] 0 0
r 0.544241685 _1_ MAC  --- 11 tcp 1040 [0 0 8 0] ------- [0:0 1:0 32 0] [7 0] 0 0
s 0.544741303 _0_ MAC  --- 14 tcp 1040 [0 0 8 0] ------- [0:0 1:0 32 0] [8 0] 0 0
s 0.545391685 _1_ MAC  --- 20 ack 40 [0 1000000 8 0] ------- [1:0 0:0 32 0] [7 0] 0 0
r 0.548901685 _1_ MAC  --- 14 tcp 1040 [0 0 8 0] ------- [0:0 1:0 32 0] [8 0] 0 0
D 0.548902138 _2_ MAC  COL 14 tcp 1040 [0 0 8 0] ------- [0:0 1:0 32 0] [8 0] 0 0
s 0.549351303 _0_ MAC  --- 15 tcp 1040 [0 0 8 0] ------- [0:0 1:0 32 0] [9 0] 0 0
s 0.549401685 _1_ MAC  --- 21 ack 40 [0 1000000 8 0] ------- [1:0 0:0 32 0] [8 0] 0 0
r 0.553511685 _1_ MAC  --- 15 tcp 1040 [0 0 8 0] ------- [0:0 1:0 32 0] [9 0] 0 0
D 0.553512138 _2_ MAC  COL 15 tcp 1040 [0 0 8 0] ------- [0:0 1:0 32 0] [9 0] 0 0
s 0.553811303 _0_ MAC  --- 16 tcp 1040 [0 0 8 0] ------- [0:0 1:0 32 0] [10 0] 0 0
s 0.553811685 _1_ MAC  --- 22 ack 40 [0 1000000 8 0] ------- [1:0 0:0 32 0] [9 0] 0 0
r 0.557971685 _1_ MAC  --- 16 tcp 1040 [0 0 8 0] ------- [0:0 1:0 32 0] [10 0] 0 0
D 0.557972138 _2_ MAC  COL 16 tcp 1040 [0 0 8 0] ------- [0:0 1:0 32 0] [10 0] 0 0
s 0.558071685 _1_ MAC  --- 23 ack 40 [0 1000000 8 0] ------- [1:0 0:0 32 0] [10 0] 0 0
r 0.558232067 _0_ MAC  --- 23 ack 40 [0 1000000 8 0] ------- [1:0 0:0 32 0] [10 0] 0 0
s 0.559521303 _0_ MAC  --- 18 tcp 1040 [0 0 8 0] ------- [0:0 1:0 32 0] [11 0] 0 0
r 0.563681685 _1_ MAC  --- 18 tcp 1040 [0 0 8 0] ------- [0:0 1:0 32 0] [11 0] 0 0
s 0.564231685 _1_ MAC  --- 29 ack 40 [0 1000000 8 0] ------- [1:0 0:0 32 0] [11 0] 0 0
r 0.564392067 _0_ MAC  --- 29 ack 40 [0 1000000 8 0] ------- [1:0 0:0 32 0] [11 0] 0 0
s 0.565131303 _0_ MAC  --- 19 tcp 1040 [0 0 8 0] ------- [0:0 1:0 32 0] [12 0] 0 0
r 0.569291685 _1_ MAC  --- 19 tcp 1040 [0 0 8 0] ------- [0:0 1:0 32 0] [12 0] 0 0
s 0.569891685 _1_ MAC  --- 32 ack 40 [0 1000000 8 0] ------- [1:0 0:0 32 0] [12 0] 0 0
r 0.570052066 _0_ MAC  --- 32 ack 40 [0 1000000 8 0] ------- [1:0 0:0 32 0] [12 0] 0 0
s 0.570691303 _0_ MAC  --- 24 tcp 1040 [0 0 8 0] ------- [0:0 1:0 32 0] [13 0] 0 0
r 0.574851684 _1_ MAC  --- 24 tcp 1040 [0 0 8 0] ------- [0:0 1:0 32 0] [13 0] 0 0
s 0.575001303 _0_ MAC  --- 25 tcp 1040 [0 0 8 0] ------- [0:0 1:0 32 0] [14 0] 0 0
s 0.575851684 _1_ MAC  --- 35 ack 40 [0 1000000 8 0] ------- [1:0 0:0 32 0] [13 0] 0 0
r 0.579161684 _1_ MAC  --- 25 tcp 1040 [0 0 8 0] ------- [0:0 1:0 32 0] [14 0] 0 0
D 0.579162136 _2_ MAC  COL 25 tcp 1040 [0 0 8 0] ------- [0:0 1:0 32 0] [14 0] 0 0
s 0.579411303 _0_ MAC  --- 26 tcp 1040 [0 0 8 0] ------- [0:0 1:0 32 0] [15 0] 0 0
s 0.581061684 _1_ MAC  --- 36 ack 40 [0 1000000 8 0] ------- [1:0 0:0 32 0] [14 0] 0 0
r 0.583571684 _1_ MAC  --- 26 tcp 1040 [0 0 8 0] ------- [0:0 1:0 32 0] [15 0] 0 0
D 0.583572136 _2_ MAC  COL 26 tcp 1040 [0 0 8 0] ------- [0:0 1:0 32 0] [15 0] 0 0
s 0.584221684 _1_ MAC  --- 37 ack 40 [0 1000000 8 0] ------- [1:0 0:0 32 0] [15 0] 0 0
r 0.584382065 _0_ MAC  --- 37 ack 40 [0 1000000 8 0] ------- [1:0 0:0 32 0] [15 0] 0 0
s 0.584921303 _0_ MAC  --- 27 tcp 1040 [0 0 8 0] ------- [0:0 1:0 32 0] [16 0] 0 0
r 0.589081684 _1_ MAC  --- 27 tcp 1040 [0 0 8 0] ------- [0:0 1:0 32 0] [16 0] 0 0
s 0.589931303 _0_ MAC  --- 28 tcp 1040 [0 0 8 0] ------- [0:0 1:0 32 0] [17 0] 0 0
s 0.590731684 _1_ MAC  --- 42 ack 40 [0 1000000 8 0] ------- [1:0 0:0 32 0] [16 0] 0 0
r 0.594091684 _1_ MAC  --- 28 tcp 1040 [0 0 8 0] ------- [0:0 1:0 32 0] [17 0] 0 0
D 0.594092135 _2_ MAC  COL 28 tcp 1040 [0 0 8 0] ------- [0:0 1:0 32 0] [17 0] 0 0
s 0.595241303 _0_ MAC  --- 30 tcp 1040 [0 0 8 0] ------- [0:0 1:0 32 0] [18 0] 0 0
s 0.595791684 _1_ MAC  --- 43 ack 40 [0 1000000 8 0] ------- [1:0 0:0 32 0] [17 0] 0 0
r 0.599401684 _1_ MAC  --- 30 tcp 1040 [0 0 8 0] ------- [0:0 1:0 32 0] [18 0] 0 0
D 0.599402135 _2_ MAC  COL 30 tcp 1040 [0 0 8 0] ------- [0:0 1:0 32 0] [18 0] 0 0
s 0.600351684 _1_ MAC  --- 44 ack 40 [0 1000000 8 0] ------- [1:0 0:0 32 0] [18 0] 0 0
r 0.600512064 _0_ MAC  --- 44 ack 40 [0 1000000 8 0] ------- [1:0 0:0 32 0] [18 0] 0 0
s 0.600951303 _0_ MAC  --- 31 tcp 1040 [0 0 8 0] ------- [0:0 1:0 32 0] [19 0] 0 0
r 0.605111683 _1_ MAC  --- 31 tcp 1040 [0 0 8 0] ------- [0:0 1:0 32 0] [19 0] 0 0
s 0.605461303 _0_ MAC  --- 33 tcp 1040 [0 0 8 0] ------- [0:0 1:0 32 0] [20 0] 0 0
s 0.605611683 _1_ MAC  --- 49 ack 40 [0 1000000 8 0] ------- [1:0 0:0 32 0] [19 0] 0 0
r 0.609621683 _1_ MAC  --- 33 tcp 1040 [0 0 8 0] ------- [0:0 1:0 32 0] [20 0] 0 0
D 0.609622134 _2_ MAC  COL 33 tcp 1040 [0 0 8 0] ------- [0:0 1:0 32 0] [20 0] 0 0
s 0.609871683 _1_ MAC  --- 50 ack 40 [0 1000000 8 0] ------- [1:0 0:0 32 0] [20 0] 0 0
r 0.610032064 _0_ MAC  --- 50 ack 40 [0 1000000 8 0] ------- [1:0 0:0 32 0] [20 0] 0 0
s 0.610871303 _0_ MAC  --- 34 tcp 1040 [0 0 8 0] ------- [0:0 1:0 32 0] [21 0] 0 0
r 0.615031683 _1_ MAC  --- 34 tcp 1040 [0 0 8 0] ------- [0:0 1:0 32 0] [21 0] 0 0
s 0.616231303 _0_ MAC  --- 38 tcp 1040 [0 0 8 0] ------- [0:0 1:0 32 0] [22 0] 0 0
s 0.616931683 _1_ MAC  --- 54 ack 40 [0 1000000 8 0] ------- [1:0 0:0 32 0] [21 0] 0 0
r 0.620391683 _1_ MAC  --- 38 tcp 1040 [0 0 8 0] ------- [0:0 1:0 32 0] [22 0] 0 0
D 0.620392134 _2_ MAC  COL 38 tcp 1040 [0 0 8 0] ------- [0:0 1:0 32 0] [22 0] 0 0
s 0.620891683 _1_ MAC  --- 55 ack 40 [0 1000000 8 0] ------- [1:0 0:0 32 0] [22 0] 0 0
s 0.620991303 _0_ MAC  --- 39 tcp 1040 [0 0 8 0] ------- [0:0 1:0 32 0] [23 0] 0 0
D 0.625151683 _1_ MAC  ERR 39 tcp 1040 [0 0 8 0] ------- [0:0 1:0 32 0] [23 0] 0 0
s 0.626401303 _0_ MAC  --- 40 tcp 1040 [0 0 8 0] ------- [0:0 1:0 32 0] [24 0] 0 0
r 0.630561682 _1_ MAC  --- 40 tcp 1040 [0 0 8 0] ------- [0:0 1:0 32 0] [24 0] 0 0
s 0.630711303 _0_ MAC  --- 41 tcp 1040 [0 0 8 0] ------- [0:0 1:0 32 0] [25 0] 0 0
s 0.632311682 _1_ MAC  --- 56 ack 40 [0 1000000 8 0] ------- [1:0 0:0 32 0] [22 0] 0 0
r 0.634871682 _1_ MAC  --- 41 tcp 1040 [0 0 8 0] ------- [0:0 1:0 32 0] [25 0] 0 0
D 0.634872133 _2_ MAC  COL 41 tcp 1040 [0 0 8 0] ------- [0:0 1:0 32 0] [25 0] 0 0
s 0.635171303 _0_ MAC  --- 45 tcp 1040 [0 0 8 0] ------- [0:0 1:0 32 0] [26 0] 0 0
s 0.636371682 _1_ MAC  --- 57 ack 40 [0 1000000 8 0] ------- [1:0 0:0 32 0] [22 0] 0 0
r 0.639331682 _1_ MAC  --- 45 tcp 1040 [0 0 8 0] ------- [0:0 1:0 32 0] [26 0] 0 0
D 0.639332132 _2_ MAC  COL 45 tcp 1040 [0 0 8 0] ------- [0:0 1:0 32 0] [26 0] 0 0
s 0.640381303 _0_ MAC  --- 46 tcp 1040 [0 0 8 0] ------- [0:0 1:0 32 0] [27 0] 0 0
s 0.640531682 _1_ MAC  --- 58 ack 40 [0 1000000 8 0] ------- [1:0 0:0 32 0] [22 0] 0 0
r 0.644541682 _1_ MAC  --- 46 tcp 1040 [0 0 8 0] ------- [0:0 1:0 32 0] [27 0] 0 0
D 0.644542132 _2_ MAC  COL 46 tcp 1040 [0 0 8 0] ------- [0:0 1:0 32 0] [27 0] 0 0
s 0.644891682 _1_ MAC  --- 59 ack 40 [0 1000000 8 0] ------- [1:0 0:0 32 0] [22 0] 0 0
r 0.645052061 _0_ MAC  --- 59 ack 40 [0 1000000 8 0] ------- [1:0 0:0 32 0] [22 0] 0 0
s 0.645741303 _0_ MAC  --- 47 tcp 1040 [0 0 8 0] ------- [0:0 1:0 32 0] [28 0] 0 0
r 0.649901682 _1_ MAC  --- 47 tcp 1040 [0 0 8 0] ------- [0:0 1:0 32 0] [28 0] 0 0
s 0.650051303 _0_ MAC  --- 48 tcp 1040 [0 0 8 0] ------- [0:0 1:0 32 0] [29 0] 0 0
s 0.650951682 _1_ MAC  --- 63 ack 40 [0 1000000 8 0] ------- [1:0 0:0 32 0] [22 0] 0 0
r 0.654211682 _1_ MAC  --- 48 tcp 1040 [0 0 8 0] ------- [0:0 1:0 32 0] [29 0] 0 0
D 0.654212131 _2_ MAC  COL 48 tcp 1040 [0 0 8 0] ------- [0:0 1:0 32 0] [29 0] 0 0
s 0.654511682 _1_ MAC  --- 64 ack 40 [0 1000000 8 0] ------- [1:0 0:0 32 0] [22 0] 0 0
r 0.654672061 _0_ MAC  --- 64 ack 40 [0 1000000 8 0] ------- [1:0 0:0 32 0] [22 0] 0 0
s 0.655461303 _0_ MAC  --- 51 tcp 1040 [0 0 8 0] ------- [0:0 1:0 32 0] [30 0] 0 0
r 0.659621682 _1_ MAC  --- 51 tcp 1040 [0 0 8 0] ------- [0:0 1:0 32 0] [30 0] 0 0
s 0.660371303 _0_ MAC  --- 52 tcp 1040 [0 0 8 0] ------- [0:0 1:0 32 0] [31 0] 0 0
s 0.661071682 _1_ MAC  --- 66 ack 40 [0 1000000 8 0] ------- [1:0 0:0 32 0] [22 0] 0 0
r 0.664531681 _1_ MAC  --- 52 tcp 1040 [0 0 8 0] ------- [0:0 1:0 32 0] [31 0] 0 0
D 0.664532131 _2_ MAC  COL 52 tcp 1040 [0 0 8 0] ------- [0:0 1:0 32 0] [31 0] 0 0
s 0.664681303 _0_ MAC  --- 53 tcp 1040 [0 0 8 0] ------- [0:0 1:0 32 0] [32 0] 0 0
s 0.666431681 _1_ MAC  --- 67 ack 40 [0 1000000 8 0] ------- [1:0 0:0 32 0] [22 0] 0 0
r 0.668841681 _1_ MAC  --- 53 tcp 1040 [0 0 8 0] ------- [0:0 1:0 32 0] [32 0] 0 0
D 0.668842130 _2_ MAC  COL 53 tcp 1040 [0 0 8 0] ------- [0:0 1:0 32 0] [32 0] 0 0
s 0.670191303 _0_ MAC  --- 60 tcp 1040 [0 0 8 0] ------- [0:0 1:0 32 0] [33 0] 0 0
s 0.670591681 _1_ MAC  --- 68 ack 40 [0 1000000 8 0] ------- [1:0 0:0 32 0] [22 0] 0 0
r 0.674351681 _1_ MAC  --- 60 tcp 1040 [0 0 8 0] ------- [0:0 1:0 32 0] [33 0] 0 0
D 0.674352130 _2_ MAC  COL 60 tcp 1040 [0 0 8 0] ------- [0:0 1:0 32 0] [33 0] 0 0
s 0.674651303 _0_ MAC  --- 61 tcp 1040 [0 0 8 0] ------- [0:0 1:0 32 0] [34 0] 0 0
s 0.675001681 _1_ MAC  --- 69 ack 40 [0 1000000 8 0] ------- [1:0 0:0 32 0] [22 0] 0 0
r 0.678811681 _1_ MAC  --- 61 tcp 1040 [0 0 8 0] ------- [0:0 1:0 32 0] [34 0] 0 0
D 0.678812130 _2_ MAC  COL 61 tcp 1040 [0 0 8 0] ------- [0:0 1:0 32 0] [34 0] 0 0
s 0.679361303 _0_ MAC  --- 62 tcp 1040 [0 0 8 0] ------- [0:0 1:0 32 0] [35 0] 0 0
s 0.679361681 _1_ MAC  --- 70 ack 40 [0 1000000 8 0] ------- [1:0 0:0 32 0] [22 0] 0 0
r 0.683521681 _1_ MAC  --- 62 tcp 1040 [0 0 8 0] ------- [0:0 1:0 32 0] [35 0] 0 0
D 0.683522129 _2_ MAC  COL 62 tcp 1040 [0 0 8 0] ------- [0:0 1:0 32 0] [35 0] 0 0
s 0.684221303 _0_ MAC  --- 65 tcp 1040 [0 0 8 0] ------- [0:0 1:0 32 0] [36 0] 0 0
s 0.685021681 _1_ MAC  --- 71 ack 40 [0 1000000 8 0] ------- [1:0 0:0 32 0] [22 0] 0 0
r 0.688381681 _1_ MAC  --- 65 tcp 1040 [0 0 8 0] ------- [0:0 1:0 32 0] [36 0] 0 0
D 0.688382129 _2_ MAC  COL 65 tcp 1040 [0 0 8 0] ------- [0:0 1:0 32 0] [36 0] 0 0
s 0.690381681 _1_ MAC  --- 72 ack 40 [0 1000000 8 0] ------- [1:0 0:0 32 0] [22 0] 0 0
r 0.690542058 _0_ MAC  --- 72 ack 40 [0 1000000 8 0] ------- [1:0 0:0 32 0] [22 0] 0 0
s 0.692342058 _0_ MAC  --- 73 tcp 1040 [0 0 8 0] ------- [0:0 1:0 32 0] [37 0] 0 0
r 0.696502436 _1_ MAC  --- 73 tcp 1040 [0 0 8 0] ------- [0:0 1:0 32 0] [37 0] 0 0
s 0.696852436 _1_ MAC  --- 74 ack 40 [0 1000000 8 0] ------- [1:0 0:0 32 0] [22 0] 0 0
r 0.697012813 _0_ MAC  --- 74 ack 40 [0 1000000 8 0] ------- [1:0 0:0 32 0] [22 0] 0 0
s 0.698262813 _0_ MAC  --- 75 tcp 1040 [0 0 8 0] ------- [0:0 1:0 32 0] [23 0] 0 0
r 0.702423191 _1_ MAC  --- 75 tcp 1040 [0 0 8 0] ------- [0:0 1:0 32 0] [23 0] 0 0
s 0.702473191 _1_ MAC  --- 76 ack 40 [0 1000000 8 0] ------- [1:0 0:0 32 0] [37 0] 0 0
r 0.702633568 _0_ MAC  --- 76 ack 40 [0 1000000 8 0] ------- [1:0 0:0 32 0] [37 0] 0 0
s 0.703633568 _0_ MAC  --- 77 tcp 1040 [0 0 8 0] ------- [0:0 1:0 32 0] [38 0] 0 0
r 0.707793945 _1_ MAC  --- 77 tcp 1040 [0 0 8 0] ------- [0:0 1:0 32 0] [38 0] 0 0
s 0.708843945 _1_ MAC  --- 79 ack 40 [0 1000000 8 0] ------- [1:0 0:0 32 0] [38 0] 0 0
r 0.709004322 _0_ MAC  --- 79 ack 40 [0 1000000 8 0] ------- [1:0 0:0 32 0] [38 0] 0 0
s 0.709243568 _0_ MAC  --- 78 tcp 1040 [0 0 8 0] ------- [0:0 1:0 32 0] [39 0] 0 0
r 0.713403945 _1_ MAC  --- 78 tcp 1040 [0 0 8 0] ------- [0:0 1:0 32 0] [39 0] 0 0
s 0.713803945 _1_ MAC  --- 82 ack 40 [0 1000000 8 0] ------- [1:0 0:0 32 0] [39 0] 0 0
r 0.713964322 _0_ MAC  --- 82 ack 40 [0 1000000 8 0] ------- [1:0 0:0 32 0] [39 0] 0 0
s 0.714253568 _0_ MAC  --- 80 tcp 1040 [0 0 8 0] ------- [0:0 1:0 32 0] [40 0] 0 0
r 0.718413945 _1_ MAC  --- 80 tcp 1040 [0 0 8 0] ------- [0:0 1:0 32 0] [40 0] 0 0
s 0.719563568 _0_ MAC  --- 81 tcp 1040 [0 0 8 0] ------- [0:0 1:0 32 0] [41 0] 0 0
s 0.720213945 _1_ MAC  --- 85 ack 40 [0 1000000 8 0] ------- [1:0 0:0 32 0] [40 0] 0 0
r 0.723723945 _1_ MAC  --- 81 tcp 1040 [0 0 8 0] ------- [0:0 1:0 32 0] [41 0] 0 0
D 0.723724392 _2_ MAC  COL 81 tcp 1040 [0 0 8 0] ------- [0:0 1:0 32 0] [41 0] 0 0
s 0.724223568 _0_ MAC  --- 83 tcp 1040 [0 0 8 0] ------- [0:0 1:0 32 0] [42 0] 0 0
s 0.725273945 _1_ MAC  --- 86 ack 40 [0 1000000 8 0] ------- [1:0 0:0 32 0] [41 0] 0 0
r 0.728383945 _1_ MAC  --- 83 tcp 1040 [0 0 8 0] ------- [0:0 1:0 32 0] [42 0] 0 0
D 0.728384392 _2_ MAC  COL 83 tcp 1040 [0 0 8 0] ------- [0:0 1:0 32 0] [42 0] 0 0
s 0.728683945 _1_ MAC  --- 87 ack 40 [0 1000000 8 0] ------- [1:0 0:0 32 0] [42 0] 0 0
r 0.728844321 _0_ MAC  --- 87 ack 40 [0 1000000 8 0] ------- [1:0 0:0 32 0] [42 0] 0 0
s 0.729333568 _0_ MAC  --- 84 tcp 1040 [0 0 8 0] ------- [0:0 1:0 32 0] [43 0] 0 0
r 0.733493944 _1_ MAC  --- 84 tcp 1040 [0 0 8 0] ------- [0:0 1:0 32 0] [43 0] 0 0
s 0.733593944 _1_ MAC  --- 92 ack 40 [0 1000000 8 0] ------- [1:0 0:0 32 0] [43 0] 0 0
r 0.733754321 _0_ MAC  --- 92 ack 40 [0 1000000 8 0] ------- [1:0 0:0 32 0] [43 0] 0 0
s 0.733993568 _0_ MAC  --- 88 tcp 1040 [0 0 8 0] ------- [0:0 1:0 32 0] [44 0] 0 0
r 0.738153944 _1_ MAC  --- 88 tcp 1040 [0 0 8 0] ------- [0:0 1:0 32 0] [44 0] 0 0
s 0.738303568 _0_ MAC  --- 89 tcp 1040 [0 0 8 0] ------- [0:0 1:0 32 0] [45 0] 0 0
s 0.738503944 _1_ MAC  --- 95 ack 40 [0 1000000 8 0] ------- [1:0 0:0 32 0] [44 0] 0 0
r 0.742463944 _1_ MAC  --- 89 tcp 1040 [0 0 8 0] ------- [0:0 1:0 32 0] [45 0] 0 0
D 0.742464391 _2_ MAC  COL 89 tcp 1040 [0 0 8 0] ------- [0:0 1:0 32 0] [45 0] 0 0
s 0.743313568 _0_ MAC  --- 90 tcp 1040 [0 0 8 0] ------- [0:0 1:0 32 0] [46 0] 0 0
s 0.744113944 _1_ MAC  --- 96 ack 40 [0 1000000 8 0] ------- [1:0 0:0 32 0] [45 0] 0 0
r 0.747473944 _1_ MAC  --- 90 tcp 1040 [0 0 8 0] ------- [0:0 1:0 32 0] [46 0] 0 0
D 0.747474391 _2_ MAC  COL 90 tcp 1040 [0 0 8 0] ------- [0:0 1:0 32 0] [46 0] 0 0
s 0.747773568 _0_ MAC  --- 91 tcp 1040 [0 0 8 0] ------- [0:0 1:0 32 0] [47 0] 0 0
s 0.748023944 _1_ MAC  --- 97 ack 40 [0 1000000 8 0] ------- [1:0 0:0 32 0] [46 0] 0 0
r 0.751933944 _1_ MAC  --- 91 tcp 1040 [0 0 8 0] ------- [0:0 1:0 32 0] [47 0] 0 0
D 0.751934390 _2_ MAC  COL 91 tcp 1040 [0 0 8 0] ------- [0:0 1:0 32 0] [47 0] 0 0
s 0.753083568 _0_ MAC  --- 93 tcp 1040 [0 0 8 0] ------- [0:0 1:0 32 0] [48 0] 0 0
s 0.753533944 _1_ MAC  --- 98 ack 40 [0 1000000 8 0] ------- [1:0 0:0 32 0] [47 0] 0 0
r 0.757243944 _1_ MAC  --- 93 tcp 1040 [0 0 8 0] ------- [0:0 1:0 32 0] [48 0] 0 0
D 0.757244390 _2_ MAC  COL 93 tcp 1040 [0 0 8 0] ------- [0:0 1:0 32 0] [48 0] 0 0
s 0.757793568 _0_ MAC  --- 94 tcp 1040 [0 0 8 0] ------- [0:0 1:0 32 0] [49 0] 0 0
s 0.758743944 _1_ MAC  --- 99 ack 40 [0 1000000 8 0] ------- [1:0 0:0 32 0] [48 0] 0 0
r 0.761953943 _1_ MAC  --- 94 tcp 1040 [0 0 8 0] ------- [0:0 1:0 32 0] [49 0] 0 0
D 0.761954390 _2_ MAC  COL 94 tcp 1040 [0 0 8 0] ------- [0:0 1:0 32 0] [49 0] 0 0
s 0.762703943 _1_ MAC  --- 100 ack 40 [0 1000000 8 0] ------- [1:0 0:0 32 0] [49 0] 0 0
r 0.762864319 _0_ MAC  --- 100 ack 40 [0 1000000 8 0] ------- [1:0 0:0 32 0] [49 0] 0 0
s 0.763664319 _0_ MAC  --- 101 tcp 1040 [0 0 8 0] ------- [0:0 1:0 32 0] [50 0] 0 0
r 0.767824694 _1_ MAC  --- 101 tcp 1040 [0 0 8 0] ------- [0:0 1:0 32 0] [50 0] 0 0
s 0.768174319 _0_ MAC  --- 102 tcp 1040 [0 0 8 0] ------- [0:0 1:0 32 0] [51 0] 0 0
s 0.768524694 _1_ MAC  --- 107 ack 40 [0 1000000 8 0] ------- [1:0 0:0 32 0] [50 0] 0 0
r 0.772334694 _1_ MAC  --- 102 tcp 1040 [0 0 8 0] ------- [0:0 1:0 32 0] [51 0] 0 0
D 0.772335140 _2_ MAC  COL 102 tcp 1040 [0 0 8 0] ------- [0:0 1:0 32 0] [51 0] 0 0
s 0.772734319 _0_ MAC  --- 103 tcp 1040 [0 0 8 0] ------- [0:0 1:0 32 0] [52 0] 0 0
s 0.773884694 _1_ MAC  --- 108 ack 40 [0 1000000 8 0] ------- [1:0 0:0 32 0] [51 0] 0 0
r 0.776894694 _1_ MAC  --- 103 tcp 1040 [0 0 8 0] ------- [0:0 1:0 32 0] [52 0] 0 0
D 0.776895139 _2_ MAC  COL 103 tcp 1040 [0 0 8 0] ------- [0:0 1:0 32 0] [52 0] 0 0
s 0.777444319 _0_ MAC  --- 104 tcp 1040 [0 0 8 0] ------- [0:0 1:0 32 0] [53 0] 0 0
s 0.778744694 _1_ MAC  --- 109 ack 40 [0 1000000 8 0] ------- [1:0 0:0 32 0] [52 0] 0 0
r 0.781604693 _1_ MAC  --- 104 tcp 1040 [0 0 8 0] ------- [0:0 1:0 32 0] [53 0] 0 0
D 0.781605139 _2_ MAC  COL 104 tcp 1040 [0 0 8 0] ------- [0:0 1:0 32 0] [53 0] 0 0
s 0.783254693 _1_ MAC  --- 110 ack 40 [0 1000000 8 0] ------- [1:0 0:0 32 0] [53 0] 0 0
r 0.783415068 _0_ MAC  --- 110 ack 40 [0 1000000 8 0] ------- [1:0 0:0 32 0] [53 0] 0 0
s 0.783554319 _0_ MAC  --- 105 tcp 1040 [0 0 8 0] ------- [0:0 1:0 32 0] [54 0] 0 0
r 0.787714693 _1_ MAC  --- 105 tcp 1040 [0 0 8 0] ------- [0:0 1:0 32 0] [54 0] 0 0
s 0.789264319 _0_ MAC  --- 106 tcp 1040 [0 0 8 0] ------- [0:0 1:0 32 0] [55 0] 0 0
s 0.789614693 _1_ MAC  --- 115 ack 40 [0 1000000 8 0] ------- [1:0 0:0 32 0] [54 0] 0 0
r 0.793424693 _1_ MAC  --- 106 tcp 1040 [0 0 8 0] ------- [0:0 1:0 32 0] [55 0] 0 0
D 0.793425138 _2_ MAC  COL 106 tcp 1040 [0 0 8 0] ------- [0:0 1:0 32 0] [55 0] 0 0
s 0.794424319 _0_ MAC  --- 111 tcp 1040 [0 0 8 0] ------- [0:0 1:0 32 0] [56 0] 0 0
s 0.794424693 _1_ MAC  --- 116 ack 40 [0 1000000 8 0] ------- [1:0 0:0 32 0] [55 0] 0 0
r 0.798584693 _1_ MAC  --- 111 tcp 1040 [0 0 8 0] ------- [0:0 1:0 32 0] [56 0] 0 0
D 0.798585138 _2_ MAC  COL 111 tcp 1040 [0 0 8 0] ------- [0:0 1:0 32 0] [56 0] 0 0
s 0.798784319 _0_ MAC  --- 112 tcp 1040 [0 0 8 0] ------- [0:0 1:0 32 0] [57 0] 0 0
s 0.800034693 _1_ MAC  --- 117 ack 40 [0 1000000 8 0] ------- [1:0 0:0 32 0] [56 0] 0 0
r 0.802944693 _1_ MAC  --- 112 tcp 1040 [0 0 8 0] ------- [0:0 1:0 32 0] [57 0] 0 0
D 0.802945138 _2_ MAC  COL 112 tcp 1040 [0 0 8 0] ------- [0:0 1:0 32 0] [57 0] 0 0
s 0.804494319 _0_ MAC  --- 113 tcp 1040 [0 0 8 0] ------- [0:0 1:0 32 0] [58 0] 0 0
s 0.804744693 _1_ MAC  --- 118 ack 40 [0 1000000 8 0] ------- [1:0 0:0 32 0] [57 0] 0 0
s 0.808654319 _0_ MAC  --- 114 tcp 1040 [0 0 8 0] ------- [0:0 1:0 32 0] [59 0] 0 0
D 0.812814692 _1_ MAC  COL 114 tcp 1040 [0 0 8 0] ------- [0:0 1:0 32 0] [59 0] 0 0
D 0.812815137 _2_ MAC  COL 114 tcp 1040 [0 0 8 0] ------- [0:0 1:0 32 0] [59 0] 0 0
s 0.985065068 _0_ MAC  --- 119 tcp 1040 [0 0 8 0] ------- [0:0 1:0 32 0] [54 0] 0 0
r 0.989225436 _1_ MAC  --- 119 tcp 1040 [0 0 8 0] ------- [0:0 1:0 32 0] [54 0] 0 0
s 0.991225436 _1_ MAC  --- 120 ack 40 [0 1000000 8 0] ------- [1:0 0:0 32 0] [57 0] 0 0
r 0.991385804 _0_ MAC  --- 120 ack 40 [0 1000000 8 0] ------- [1:0 0:0 32 0] [57 0] 0 0
s 0.992885804 _0_ MAC  --- 121 tcp 1040 [0 0 8 0] ------- [0:0 1:0 32 0] [58 0] 0 0
r 0.997046171 _1_ MAC  --- 121 tcp 1040 [0 0 8 0] ------- [0:0 1:0 32 0] [58 0] 0 0
s 0.997795804 _0_ MAC  --- 122 tcp 1040 [0 0 8 0] ------- [0:0 1:0 32 0] [59 0] 0 0
s 0.998196171 _1_ MAC  --- 123 ack 40 [0 1000000 8 0] ------- [1:0 0:0 32 0] [58 0] 0 0
r 1.001956171 _1_ MAC  --- 122 tcp 1040 [0 0 8 0] ------- [0:0 1:0 32 0] [59 0] 0 0
D 1.001956609 _2_ MAC  COL 122 tcp 1040 [0 0 8 0] ------- [0:0 1:0 32 0] [59 0] 0 0
s 1.002506171 _1_ MAC  --- 124 ack 40 [0 1000000 8 0] ------- [1:0 0:0 32 0] [59 0] 0 0
r 1.002666538 _0_ MAC  --- 124 ack 40 [0 1000000 8 0] ------- [1:0 0:0 32 0] [59 0] 0 0
s 1.002816538 _0_ MAC  --- 125 tcp 1040 [0 0 8 0] ------- [0:0 1:0 32 0] [60 0] 0 0
r 1.006976906 _1_ MAC  --- 125 tcp 1040 [0 0 8 0] ------- [0:0 1:0 32 0] [60 0] 0 0
s 1.007276906 _1_ MAC  --- 128 ack 40 [0 1000000 8 0] ------- [1:0 0:0 32 0] [60 0] 0 0
r 1.007437273 _0_ MAC  --- 128 ack 40 [0 1000000 8 0] ------- [1:0 0:0 32 0] [60 0] 0 0
s 1.007526538 _0_ MAC  --- 126 tcp 1040 [0 0 8 0] ------- [0:0 1:0 32 0] [61 0] 0 0
r 1.011686905 _1_ MAC  --- 126 tcp 1040 [0 0 8 0] ------- [0:0 1:0 32 0] [61 0] 0 0
s 1.012486538 _0_ MAC  --- 127 tcp 1040 [0 0 8 0] ------- [0:0 1:0 32 0] [62 0] 0 0
s 1.012686905 _1_ MAC  --- 130 ack 40 [0 1000000 8 0] ------- [1:0 0:0 32 0] [61 0] 0 0
r 1.016646905 _1_ MAC  --- 127 tcp 1040 [0 0 8 0] ------- [0:0 1:0 32 0] [62 0] 0 0
D 1.016647343 _2_ MAC  COL 127 tcp 1040 [0 0 8 0] ------- [0:0 1:0 32 0] [62 0] 0 0
s 1.017146538 _0_ MAC  --- 129 tcp 1040 [0 0 8 0] ------- [0:0 1:0 32 0] [63 0] 0 0
s 1.017996905 _1_ MAC  --- 131 ack 40 [0 1000000 8 0] ------- [1:0 0:0 32 0] [62 0] 0 0
r 1.021306905 _1_ MAC  --- 129 tcp 1040 [0 0 8 0] ------- [0:0 1:0 32 0] [63 0] 0 0
D 1.021307343 _2_ MAC  COL 129 tcp 1040 [0 0 8 0] ------- [0:0 1:0 32 0] [63 0] 0 0
s 1.022256905 _1_ MAC  --- 132 ack 40 [0 1000000 8 0] ------- [1:0 0:0 32 0] [63 0] 0 0
r 1.022417272 _0_ MAC  --- 132 ack 40 [0 1000000 8 0] ------- [1:0 0:0 32 0] [63 0] 0 0
s 1.024317272 _0_ MAC  --- 133 tcp 1040 [0 0 8 0] ------- [0:0 1:0 32 0] [64 0] 0 0
r 1.028477638 _1_ MAC  --- 133 tcp 1040 [0 0 8 0] ------- [0:0 1:0 32 0] [64 0] 0 0
s 1.028577272 _0_ MAC  --- 134 tcp 1040 [0 0 8 0] ------- [0:0 1:0 32 0] [65 0] 0 0
s 1.029677638 _1_ MAC  --- 136 ack 40 [0 1000000 8 0] ------- [1:0 0:0 32 0] [64 0] 0 0
r 1.032737638 _1_ MAC  --- 134 tcp 1040 [0 0 8 0] ------- [0:0 1:0 32 0] [65 0] 0 0
D 1.032738075 _2_ MAC  COL 134 tcp 1040 [0 0 8 0] ------- [0:0 1:0 32 0] [65 0] 0 0
s 1.033087272 _0_ MAC  --- 135 tcp 1040 [0 0 8 0] ------- [0:0 1:0 32 0] [66 0] 0 0
s 1.033237638 _1_ MAC  --- 137 ack 40 [0 1000000 8 0] ------- [1:0 0:0 32 0] [65 0] 0 0
r 1.037247638 _1_ MAC  --- 135 tcp 1040 [0 0 8 0] ------- [0:0 1:0 32 0] [66 0] 0 0
D 1.037248075 _2_ MAC  COL 135 tcp 1040 [0 0 8 0] ------- [0:0 1:0 32 0] [66 0] 0 0
s 1.038097638 _1_ MAC  --- 138 ack 40 [0 1000000 8 0] ------- [1:0 0:0 32 0] [66 0] 0 0
r 1.038258004 _0_ MAC  --- 138 ack 40 [0 1000000 8 0] ------- [1:0 0:0 32 0] [66 0] 0 0
s 1.039308004 _0_ MAC  --- 139 tcp 1040 [0 0 8 0] ------- [0:0 1:0 32 0] [67 0] 0 0
r 1.043468370 _1_ MAC  --- 139 tcp 1040 [0 0 8 0] ------- [0:0 1:0 32 0] [67 0] 0 0
s 1.043768004 _0_ MAC  --- 140 tcp 1040 [0 0 8 0] ------- [0:0 1:0 32 0] [68 0] 0 0
s 1.045268370 _1_ MAC  --- 142 ack 40 [0 1000000 8 0] ------- [1:0 0:0 32 0] [67 0] 0 0
r 1.047928370 _1_ MAC  --- 140 tcp 1040 [0 0 8 0] ------- [0:0 1:0 32 0] [68 0] 0 0
D 1.047928807 _2_ MAC  COL 140 tcp 1040 [0 0 8 0] ------- [0:0 1:0 32 0] [68 0] 0 0
s 1.048978004 _0_ MAC  --- 141 tcp 1040 [0 0 8 0] ------- [0:0 1:0 32 0] [69 0] 0 0
s 1.049828370 _1_ MAC  --- 143 ack 40 [0 1000000 8 0] ------- [1:0 0:0 32 0] [68 0] 0 0
r 1.053138370 _1_ MAC  --- 141 tcp 1040 [0 0 8 0] ------- [0:0 1:0 32 0] [69 0] 0 0
D 1.053138806 _2_ MAC  COL 141 tcp 1040 [0 0 8 0] ------- [0:0 1:0 32 0] [69 0] 0 0
s 1.054238370 _1_ MAC  --- 144 ack 40 [0 1000000 8 0] ------- [1:0 0:0 32 0] [69 0] 0 0
r 1.054398735 _0_ MAC  --- 144 ack 40 [0 1000000 8 0] ------- [1:0 0:0 32 0] [69 0] 0 0
s 1.055548735 _0_ MAC  --- 145 tcp 1040 [0 0 8 0] ------- [0:0 1:0 32 0] [70 0] 0 0
r 1.059709101 _1_ MAC  --- 145 tcp 1040 [0 0 8 0] ------- [0:0 1:0 32 0] [70 0] 0 0
s 1.060009101 _1_ MAC  --- 149 ack 40 [0 1000000 8 0] ------- [1:0 0:0 32 0] [70 0] 0 0
s 1.060058735 _0_ MAC  --- 146 tcp 1040 [0 0 8 0] ------- [0:0 1:0 32 0] [71 0] 0 0
D 1.064219101 _1_ MAC  ERR 146 tcp 1040 [0 0 8 0] ------- [0:0 1:0 32 0] [71 0] 0 0
s 1.064268735 _0_ MAC  --- 147 tcp 1040 [0 0 8 0] ------- [0:0 1:0 32 0] [72 0] 0 0
r 1.068429101 _1_ MAC  --- 147 tcp 1040 [0 0 8 0] ------- [0:0 1:0 32 0] [72 0] 0 0
s 1.070178735 _0_ MAC  --- 148 tcp 1040 [0 0 8 0] ------- [0:0 1:0 32 0] [73 0] 0 0
s 1.070279101 _1_ MAC  --- 150 ack 40 [0 1000000 8 0] ------- [1:0 0:0 32 0] [70 0] 0 0
r 1.074339100 _1_ MAC  --- 148 tcp 1040 [0 0 8 0] ------- [0:0 1:0 32 0] [73 0] 0 0
D 1.074339536 _2_ MAC  COL 148 tcp 1040 [0 0 8 0] ------- [0:0 1:0 32 0] [73 0] 0 0
s 1.074489100 _1_ MAC  --- 151 ack 40 [0 1000000 8 0] ------- [1:0 0:0 32 0] [70 0] 0 0
r 1.074649465 _0_ MAC  --- 151 ack 40 [0 1000000 8 0] ------- [1:0 0:0 32 0] [70 0] 0 0
s 1.076449465 _0_ MAC  --- 152 tcp 1040 [0 0 8 0] ------- [0:0 1:0 32 0] [74 0] 0 0
r 1.080609830 _1_ MAC  --- 152 tcp 1040 [0 0 8 0] ------- [0:0 1:0 32 0] [74 0] 0 0
s 1.080809830 _1_ MAC  --- 153 ack 40 [0 1000000 8 0] ------- [1:0 0:0 32 0] [70 0] 0 0
r 1.080970195 _0_ MAC  --- 153 ack 40 [0 1000000 8 0] ------- [1:0 0:0 32 0] [70 0] 0 0
s 1.081770195 _0_ MAC  --- 154 tcp 1040 [0 0 8 0] ------- [0:0 1:0 32 0] [75 0] 0 0
r 1.085930559 _1_ MAC  --- 154 tcp 1040 [0 0 8 0] ------- [0:0 1:0 32 0] [75 0] 0 0
s 1.086980559 _1_ MAC  --- 155 ack 40 [0 1000000 8 0] ------- [1:0 0:0 32 0] [70 0] 0 0
r 1.087140924 _0_ MAC  --- 155 ack 40 [0 1000000 8 0] ------- [1:0 0:0 32 0] [70 0] 0 0
s 1.088790924 _0_ MAC  --- 156 tcp 1040 [0 0 8 0] ------- [0:0 1:0 32 0] [76 0] 0 0
r 1.092951288 _1_ MAC  --- 156 tcp 1040 [0 0 8 0] ------- [0:0 1:0 32 0] [76 0] 0 0
s 1.093451288 _1_ MAC  --- 157 ack 40 [0 1000000 8 0] ------- [1:0 0:0 32 0] [70 0] 0 0
r 1.093611652 _0_ MAC  --- 157 ack 40 [0 1000000 8 0] ------- [1:0 0:0 32 0] [70 0] 0 0
s 1.095161652 _0_ MAC  --- 158 tcp 1040 [0 0 8 0] ------- [0:0 1:0 32 0] [71 0] 0 0
r 1.099322017 _1_ MAC  --- 158 tcp 1040 [0 0 8 0] ------- [0:0 1:0 32 0] [71 0] 0 0
s 1.100372017 _1_ MAC  --- 159 ack 40 [0 1000000 8 0] ------- [1:0 0:0 32 0] [76 0] 0 0
r 1.100532381 _0_ MAC  --- 159 ack 40 [0 1000000 8 0] ------- [1:0 0:0 32 0] [76 0] 0 0
s 1.102382381 _0_ MAC  --- 160 tcp 1040 [0 0 8 0] ------- [0:0 1:0 32 0] [77 0] 0 0
r 1.106542745 _1_ MAC  --- 160 tcp 1040 [0 0 8 0] ------- [0:0 1:0 32 0] [77 0] 0 0
s 1.107542745 _1_ MAC  --- 162 ack 40 [0 1000000 8 0] ------- [1:0 0:0 32 0] [77 0] 0 0
r 1.107703108 _0_ MAC  --- 162 ack 40 [0 1000000 8 0] ------- [1:0 0:0 32 0] [77 0] 0 0
s 1.108092381 _0_ MAC  --- 161 tcp 1040 [0 0 8 0] ------- [0:0 1:0 32 0] [78 0] 0 0
r 1.112252744 _1_ MAC  --- 161 tcp 1040 [0 0 8 0] ------- [0:0 1:0 32 0] [78 0] 0 0
s 1.112302381 _0_ MAC  --- 163 tcp 1040 [0 0 8 0] ------- [0:0 1:0 32 0] [79 0] 0 0
s 1.112452744 _1_ MAC  --- 164 ack 40 [0 1000000 8 0] ------- [1:0 0:0 32 0] [78 0] 0 0
D 1.116463179 _2_ MAC  COL 163 tcp 1040 [0 0 8 0] ------- [0:0 1:0 32 0] [79 0] 0 0
s 1.309553108 _0_ MAC  --- 165 tcp 1040 [0 0 8 0] ------- [0:0 1:0 32 0] [78 0] 0 0
r 1.313713465 _1_ MAC  --- 165 tcp 1040 [0 0 8 0] ------- [0:0 1:0 32 0] [78 0] 0 0
s 1.314763465 _1_ MAC  --- 166 ack 40 [0 1000000 8 0] ------- [1:0 0:0 32 0] [78 0] 0 0
r 1.314923822 _0_ MAC  --- 166 ack 40 [0 1000000 8 0] ------- [1:0 0:0 32 0] [78 0] 0 0
s 1.316823822 _0_ MAC  --- 167 tcp 1040 [0 0 8 0] ------- [0:0 1:0 32 0] [79 0] 0 0
r 1.320984179 _1_ MAC  --- 167 tcp 1040 [0 0 8 0] ------- [0:0 1:0 32 0] [79 0] 0 0
s 1.321633822 _0_ MAC  --- 168 tcp 1040 [0 0 8 0] ------- [0:0 1:0 32 0] [80 0] 0 0
s 1.322834179 _1_ MAC  --- 169 ack 40 [0 1000000 8 0] ------- [1:0 0:0 32 0] [79 0] 0 0
r 1.325794179 _1_ MAC  --- 168 tcp 1040 [0 0 8 0] ------- [0:0 1:0 32 0] [80 0] 0 0
D 1.325794606 _2_ MAC  COL 168 tcp 1040 [0 0 8 0] ------- [0:0 1:0 32 0] [80 0] 0 0
s 1.326744179 _1_ MAC  --- 170 ack 40 [0 1000000 8 0] ------- [1:0 0:0 32 0] [80 0] 0 0
r 1.326904535 _0_ MAC  --- 170 ack 40 [0 1000000 8 0] ------- [1:0 0:0 32 0] [80 0] 0 0
s 1.327954535 _0_ MAC  --- 171 tcp 1040 [0 0 8 0] ------- [0:0 1:0 32 0] [81 0] 0 0
r 1.332114892 _1_ MAC  --- 171 tcp 1040 [0 0 8 0] ------- [0:0 1:0 32 0] [81 0] 0 0
s 1.332964535 _0_ MAC  --- 172 tcp 1040 [0 0 8 0] ------- [0:0 1:0 32 0] [82 0] 0 0
s 1.333114892 _1_ MAC  --- 173 ack 40 [0 1000000 8 0] ------- [1:0 0:0 32 0] [81 0] 0 0
r 1.337124892 _1_ MAC  --- 172 tcp 1040 [0 0 8 0] ------- [0:0 1:0 32 0] [82 0] 0 0
D 1.337125319 _2_ MAC  COL 172 tcp 1040 [0 0 8 0] ------- [0:0 1:0 32 0] [82 0] 0 0
s 1.337574892 _1_ MAC  --- 174 ack 40 [0 1000000 8 0] ------- [1:0 0:0 32 0] [82 0] 0 0
r 1.337735248 _0_ MAC  --- 174 ack 40 [0 1000000 8 0] ------- [1:0 0:0 32 0] [82 0] 0 0
s 1.338035248 _0_ MAC  --- 175 tcp 1040 [0 0 8 0] ------- [0:0 1:0 32 0] [83 0] 0 0
r 1.342195604 _1_ MAC  --- 175 tcp 1040 [0 0 8 0] ------- [0:0 1:0 32 0] [83 0] 0 0