n -t * -s 0  -x 0 -y 0 -Z 0 -z 20  -v circle -c black
n -t * -s 1  -x 0 -y 0 -Z 0 -z 20  -v circle -c black
n -t * -s 2  -x 0 -y 0 -Z 0 -z 20  -v circle -c black
V -t * -v 1.0a5 -a 0
W -t * -x 250 -y 250
A -t * -n 1 -p 0 -o 0x7fffffff -c 30 -a 1
A -t * -h 1 -m 1073741823 -s 0
n -t 0.000000 -s 0 -x 15.000000 -y 15.000000 -U 7.071068 -V 7.071068 -T 4.949747
n -t 0.000000 -s 2 -x 200.000000 -y 200.000000 -U -7.071068 -V -7.071068 -T 2.828427
+ -t 0.501805000 -s 0 -d -1 -p ARP -e 28 -c 2 -a 0 -i 0 -k MAC 
- -t 0.501805000 -s 0 -d -1 -p ARP -e 28 -c 2 -a 0 -i 0 -k MAC
h -t 0.501805000 -s 0 -d -1 -p ARP -e 28 -c 2 -a 0 -i 0 -k MAC
r -t 0.501917384 -s 1 -d -1 -p ARP -e 28 -c 2 -a 0 -i 0 -k MAC
d -t 0.501917839 -s 2 -d -1 -p ARP -e 28 -c 2 -a 0 -i 0 -k MAC
+ -t 0.503672384 -s 1 -d -1 -p ARP -e 28 -c 2 -a 0 -i 0 -k MAC 
- -t 0.503672384 -s 1 -d -1 -p ARP -e 28 -c 2 -a 0 -i 0 -k MAC
h -t 0.503672384 -s 1 -d -1 -p ARP -e 28 -c 2 -a 0 -i 0 -k MAC
r -t 0.503784768 -s 0 -d -1 -p ARP -e 28 -c 2 -a 0 -i 0 -k MAC
+ -t 0.504939768 -s 0 -d -1 -p tcp -e 40 -c 2 -a 0 -i 0 -k MAC 
- -t 0.504939768 -s 0 -d -1 -p tcp -e 40 -c 2 -a 0 -i 0 -k MAC
h -t 0.504939768 -s 0 -d -1 -p tcp -e 40 -c 2 -a 0 -i 0 -k MAC
r -t 0.505100152 -s 1 -d -1 -p tcp -e 40 -c 2 -a 0 -i 0 -k MAC
+ -t 0.506550152 -s 1 -d -1 -p ack -e 40 -c 2 -a 0 -i 1 -k MAC 
- -t 0.506550152 -s 1 -d -1 -p ack -e 40 -c 2 -a 0 -i 1 -k MAC
h -t 0.506550152 -s 1 -d -1 -p ack -e 40 -c 2 -a 0 -i 1 -k MAC
r -t 0.506710536 -s 0 -d -1 -p ack -e 40 -c 2 -a 0 -i 1 -k MAC
+ -t 0.507110536 -s 0 -d -1 -p tcp -e 1040 -c 2 -a 0 -i 2 -k MAC 
- -t 0.507110536 -s 0 -d -1 -p tcp -e 1040 -c 2 -a 0 -i 2 -k MAC
h -t 0.507110536 -s 0 -d -1 -p tcp -e 1040 -c 2 -a 0 -i 2 -k MAC
r -t 0.511270919 -s 1 -d -1 -p tcp -e 1040 -c 2 -a 0 -i 2 -k MAC
+ -t 0.511720536 -s 0 -d -1 -p tcp -e 1040 -c 2 -a 0 -i 3 -k MAC 
- -t 0.511720536 -s 0 -d -1 -p tcp -e 1040 -c 2 -a 0 -i 3 -k MAC
h -t 0.511720536 -s 0 -d -1 -p tcp -e 1040 -c 2 -a 0 -i 3 -k MAC
+ -t 0.512570919 -s 1 -d -1 -p ack -e 40 -c 2 -a 0 -i 4 -k MAC 
- -t 0.512570919 -s 1 -d -1 -p ack -e 40 -c 2 -a 0 -i 4 -k MAC
h -t 0.512570919 -s 1 -d -1 -p ack -e 40 -c 2 -a 0 -i 4 -k MAC
r -t 0.515880919 -s 1 -d -1 -p tcp -e 1040 -c 2 -a 0 -i 3 -k MAC
d -t 0.515881374 -s 2 -d -1 -p tcp -e 1040 -c 2 -a 0 -i 3 -k MAC
+ -t 0.516330919 -s 1 -d -1 -p ack -e 40 -c 2 -a 0 -i 5 -k MAC 
- -t 0.516330919 -s 1 -d -1 -p ack -e 40 -c 2 -a 0 -i 5 -k MAC
h -t 0.516330919 -s 1 -d -1 -p ack -e 40 -c 2 -a 0 -i 5 -k MAC
r -t 0.516491303 -s 0 -d -1 -p ack -e 40 -c 2 -a 0 -i 5 -k MAC
+ -t 0.517641303 -s 0 -d -1 -p tcp -e 1040 -c 2 -a 0 -i 6 -k MAC 
- -t 0.517641303 -s 0 -d -1 -p tcp -e 1040 -c 2 -a 0 -i 6 -k MAC
h -t 0.517641303 -s 0 -d -1 -p tcp -e 1040 -c 2 -a 0 -i 6 -k MAC
r -t 0.521801686 -s 1 -d -1 -p tcp -e 1040 -c 2 -a 0 -i 6 -k MAC
+ -t 0.522651686 -s 1 -d -1 -p ack -e 40 -c 2 -a 0 -i 9 -k MAC 
- -t 0.522651686 -s 1 -d -1 -p ack -e 40 -c 2 -a 0 -i 9 -k MAC
h -t 0.522651686 -s 1 -d -1 -p ack -e 40 -c 2 -a 0 -i 9 -k MAC
r -t 0.522812069 -s 0 -d -1 -p ack -e 40 -c 2 -a 0 -i 9 -k MAC
+ -t 0.523751303 -s 0 -d -1 -p tcp -e 1040 -c 2 -a 0 -i 7 -k MAC 
- -t 0.523751303 -s 0 -d -1 -p tcp -e 1040 -c 2 -a 0 -i 7 -k MAC
h -t 0.523751303 -s 0 -d -1 -p tcp -e 1040 -c 2 -a 0 -i 7 -k MAC
r -t 0.527911686 -s 1 -d -1 -p tcp -e 1040 -c 2 -a 0 -i 7 -k MAC
+ -t 0.528511303 -s 0 -d -1 -p tcp -e 1040 -c 2 -a 0 -i 8 -k MAC 
- -t 0.528511303 -s 0 -d -1 -p tcp -e 1040 -c 2 -a 0 -i 8 -k MAC
h -t 0.528511303 -s 0 -d -1 -p tcp -e 1040 -c 2 -a 0 -i 8 -k MAC
+ -t 0.529511686 -s 1 -d -1 -p ack -e 40 -c 2 -a 0 -i 12 -k MAC 
- -t 0.529511686 -s 1 -d -1 -p ack -e 40 -c 2 -a 0 -i 12 -k MAC
h -t 0.529511686 -s 1 -d -1 -p ack -e 40 -c 2 -a 0 -i 12 -k MAC
r -t 0.532671686 -s 1 -d -1 -p tcp -e 1040 -c 2 -a 0 -i 8 -k MAC
d -t 0.532672140 -s 2 -d -1 -p tcp -e 1040 -c 2 -a 0 -i 8 -k MAC
+ -t 0.533271686 -s 1 -d -1 -p ack -e 40 -c 2 -a 0 -i 13 -k MAC 
- -t 0.533271686 -s 1 -d -1 -p ack -e 40 -c 2 -a 0 -i 13 -k MAC
h -t 0.533271686 -s 1 -d -1 -p ack -e 40 -c 2 -a 0 -i 13 -k MAC
r -t 0.533432069 -s 0 -d -1 -p ack -e 40 -c 2 -a 0 -i 13 -k MAC
+ -t 0.534271303 -s 0 -d -1 -p tcp -e 1040 -c 2 -a 0 -i 10 -k MAC 
- -t 0.534271303 -s 0 -d -1 -p tcp -e 1040 -c 2 -a 0 -i 10 -k MAC
h -t 0.534271303 -s 0 -d -1 -p tcp -e 1040 -c 2 -a 0 -i 10 -k MAC
r -t 0.538431686 -s 1 -d -1 -p tcp -e 1040 -c 2 -a 0 -i 10 -k MAC
+ -t 0.539681686 -s 1 -d -1 -p ack -e 40 -c 2 -a 0 -i 17 -k MAC 
- -t 0.539681686 -s 1 -d -1 -p ack -e 40 -c 2 -a 0 -i 17 -k MAC
h -t 0.539681686 -s 1 -d -1 -p ack -e 40 -c 2 -a 0 -i 17 -k MAC
r -t 0.539842068 -s 0 -d -1 -p ack -e 40 -c 2 -a 0 -i 17 -k MAC
+ -t 0.540081303 -s 0 -d -1 -p tcp -e 1040 -c 2 -a 0 -i 11 -k MAC 
- -t 0.540081303 -s 0 -d -1 -p tcp -e 1040 -c 2 -a 0 -i 11 -k MAC
h -t 0.540081303 -s 0 -d -1 -p tcp -e 1040 -c 2 -a 0 -i 11 -k MAC
r -t 0.544241685 -s 1 -d -1 -p tcp -e 1040 -c 2 -a 0 -i 11 -k MAC
+ -t 0.544741303 -s 0 -d -1 -p tcp -e 1040 -c 2 -a 0 -i 14 -k MAC 
- -t 0.544741303 -s 0 -d -1 -p tcp -e 1040 -c 2 -a 0 -i 14 -k MAC
h -t 0.544741303 -s 0 -d -1 -p tcp -e 1040 -c 2 -a 0 -i 14 -k MAC
+ -t 0.545391685 -s 1 -d -1 -p ack -e 40 -c 2 -a 0 -i 20 -k MAC 
- -t 0.545391685 -s 1 -d -1 -p ack -e 40 -c 2 -a 0 -i 20 -k MAC
h -t 0.545391685 -s 1 -d -1 -p ack -e 40 -c 2 -a 0 -i 20 -k MAC
r -t 0.548901685 -s 1 -d -1 -p tcp -e 1040 -c 2 -a 0 -i 14 -k MAC
d -t 0.548902138 -s 2 -d -1 -p tcp -e 1040 -c 2 -a 0 -i 14 -k MAC
+ -t 0.549351303 -s 0 -d -1 -p tcp -e 1040 -c 2 -a 0 -i 15 -k MAC 
- -t 0.549351303 -s 0 -d -1 -p tcp -e 1040 -c 2 -a 0 -i 15 -k MAC
h -t 0.549351303 -s 0 -d -1 -p tcp -e 1040 -c 2 -a 0 -i 15 -k MAC
+ -t 0.549401685 -s 1 -d -1 -p ack -e 40 -c 2 -a 0 -i 21 -k MAC 
- -t 0.549401685 -s 1 -d -1 -p ack -e 40 -c 2 -a 0 -i 21 -k MAC
h -t 0.549401685 -s 1 -d -1 -p ack -e 40 -c 2 -a 0 -i 21 -k MAC
r -t 0.553511685 -s 1 -d -1 -p tcp -e 1040 -c 2 -a 0 -i 15 -k MAC
d -t 0.553512138 -s 2 -d -1 -p tcp -e 1040 -c 2 -a 0 -i 15 -k MAC
+ -t 0.553811303 -s 0 -d -1 -p tcp -e 1040 -c 2 -a 0 -i 16 -k MAC 
- -t 0.553811303 -s 0 -d -1 -p tcp -e 1040 -c 2 -a 0 -i 16 -k MAC
h -t 0.553811303 -s 0 -d -1 -p tcp -e 1040 -c 2 -a 0 -i 16 -k MAC
+ -t 0.553811685 -s 1 -d -1 -p ack -e 40 -c 2 -a 0 -i 22 -k MAC 
- -t 0.553811685 -s 1 -d -1 -p ack -e 40 -c 2 -a 0 -i 22 -k MAC
h -t 0.553811685 -s 1 -d -1 -p ack -e 40 -c 2 -a 0 -i 22 -k MAC
r -t 0.557971685 -s 1 -d -1 -p tcp -e 1040 -c 2 -a 0 -i 16 -k MAC
d -t 0.557972138 -s 2 -d -1 -p tcp -e 1040 -c 2 -a 0 -i 16 -k MAC
+ -t 0.558071685 -s 1 -d -1 -p ack -e 40 -c 2 -a 0 -i 23 -k MAC 
- -t 0.558071685 -s 1 -d -1 -p ack -e 40 -c 2 -a 0 -i 23 -k MAC
h -t 0.558071685 -s 1 -d -1 -p ack -e 40 -c 2 -a 0 -i 23 -k MAC
r -t 0.558232067 -s 0 -d -1 -p ack -e 40 -c 2 -a 0 -i 23 -k MAC
+ -t 0.559521303 -s 0 -d -1 -p tcp -e 1040 -c 2 -a 0 -i 18 -k MAC 
- -t 0.559521303 -s 0 -d -1 -p tcp -e 1040 -c 2 -a 0 -i 18 -k MAC
h -t 0.559521303 -s 0 -d -1 -p tcp -e 1040 -c 2 -a 0 -i 18 -k MAC
r -t 0.563681685 -s 1 -d -1 -p tcp -e 1040 -c 2 -a 0 -i 18 -k MAC
+ -t 0.564231685 -s 1 -d -1 -p ack -e 40 -c 2 -a 0 -i 29 -k MAC 
- -t 0.564231685 -s 1 -d -1 -p ack -e 40 -c 2 -a 0 -i 29 -k MAC
h -t 0.564231685 -s 1 -d -1 -p ack -e 40 -c 2 -a 0 -i 29 -k MAC
r -t 0.564392067 -s 0 -d -1 -p ack -e 40 -c 2 -a 0 -i 29 -k MAC
+ -t 0.565131303 -s 0 -d -1 -p tcp -e 1040 -c 2 -a 0 -i 19 -k MAC 
- -t 0.565131303 -s 0 -d -1 -p tcp -e 1040 -c 2 -a 0 -i 19 -k MAC
h -t 0.565131303 -s 0 -d -1 -p tcp -e 1040 -c 2 -a 0 -i 19 -k MAC
r -t 0.569291685 -s 1 -d -1 -p tcp -e 1040 -c 2 -a 0 -i 19 -k MAC
+ -t 0.569891685 -s 1 -d -1 -p ack -e 40 -c 2 -a 0 -i 32 -k MAC 
- -t 0.569891685 -s 1 -d -1 -p ack -e 40 -c 2 -a 0 -i 32 -k MAC
h -t 0.569891685 -s 1 -d -1 -p ack -e 40 -c 2 -a 0 -i 32 -k MAC
r -t 0.570052066 -s 0 -d -1 -p ack -e 40 -c 2 -a 0 -i 32 -k MAC
+ -t 0.570691303 -s 0 -d -1 -p tcp -e 1040 -c 2 -a 0 -i 24 -k MAC 
- -t 0.570691303 -s 0 -d -1 -p tcp -e 1040 -c 2 -a 0 -i 24 -k MAC
h -t 0.570691303 -s 0 -d -1 -p tcp -e 1040 -c 2 -a 0 -i 24 -k MAC
r -t 0.574851684 -s 1 -d -1 -p tcp -e 1040 -c 2 -a 0 -i 24 -k MAC
+ -t 0.575001303 -s 0 -d -1 -p tcp -e 1040 -c 2 -a 0 -i 25 -k MAC 
- -t 0.575001303 -s 0 -d -1 -p tcp -e 1040 -c 2 -a 0 -i 25 -k MAC
h -t 0.575001303 -s 0 -d -1 -p tcp -e 1040 -c 2 -a 0 -i 25 -k MAC
+ -t 0.575851684 -s 1 -d -1 -p ack -e 40 -c 2 -a 0 -i 35 -k MAC 
- -t 0.575851684 -s 1 -d -1 -p ack -e 40 -c 2 -a 0 -i 35 -k MAC
h -t 0.575851684 -s 1 -d -1 -p ack -e 40 -c 2 -a 0 -i 35 -k MAC
r -t 0.579161684 -s 1 -d -1 -p tcp -e 1040 -c 2 -a 0 -i 25 -k MAC
d -t 0.579162136 -s 2 -d -1 -p tcp -e 1040 -c 2 -a 0 -i 25 -k MAC
+ -t 0.579411303 -s 0 -d -1 -p tcp -e 1040 -c 2 -a 0 -i 26 -k MAC 
- -t 0.579411303 -s 0 -d -1 -p tcp -e 1040 -c 2 -a 0 -i 26 -k MAC
h -t 0.579411303 -s 0 -d -1 -p tcp -e 1040 -c 2 -a 0 -i 26 -k MAC
+ -t 0.581061684 -s 1 -d -1 -p ack -e 40 -c 2 -a 0 -i 36 -k MAC 
- -t 0.581061684 -s 1 -d -1 -p ack -e 40 -c 2 -a 0 -i 36 -k MAC
h -t 0.581061684 -s 1 -d -1 -p ack -e 40 -c 2 -a 0 -i 36 -k MAC
r -t 0.583571684 -s 1 -d -1 -p tcp -e 1040 -c 2 -a 0 -i 26 -k MAC
d -t 0.583572136 -s 2 -d -1 -p tcp -e 1040 -c 2 -a 0 -i 26 -k MAC
+ -t 0.584221684 -s 1 -d -1 -p ack -e 40 -c 2 -a 0 -i 37 -k MAC 
- -t 0.584221684 -s 1 -d -1 -p ack -e 40 -c 2 -a 0 -i 37 -k MAC
h -t 0.584221684 -s 1 -d -1 -p ack -e 40 -c 2 -a 0 -i 37 -k MAC
r -t 0.584382065 -s 0 -d -1 -p ack -e 40 -c 2 -a 0 -i 37 -k MAC
+ -t 0.584921303 -s 0 -d -1 -p tcp -e 1040 -c 2 -a 0 -i 27 -k MAC 
- -t 0.584921303 -s 0 -d -1 -p tcp -e 1040 -c 2 -a 0 -i 27 -k MAC
h -t 0.584921303 -s 0 -d -1 -p tcp -e 1040 -c 2 -a 0 -i 27 -k MAC
r -t 0.589081684 -s 1 -d -1 -p tcp -e 1040 -c 2 -a 0 -i 27 -k MAC
+ -t 0.589931303 -s 0 -d -1 -p tcp -e 1040 -c 2 -a 0 -i 28 -k MAC 
- -t 0.589931303 -s 0 -d -1 -p tcp -e 1040 -c 2 -a 0 -i 28 -k MAC
h -t 0.589931303 -s 0 -d -1 -p tcp -e 1040 -c 2 -a 0 -i 28 -k MAC
+ -t 0.590731684 -s 1 -d -1 -p ack -e 40 -c 2 -a 0 -i 42 -k MAC 
- -t 0.590731684 -s 1 -d -1 -p ack -e 40 -c 2 -a 0 -i 42 -k MAC
h -t 0.590731684 -s 1 -d -1 -p ack -e 40 -c 2 -a 0 -i 42 -k MAC
r -t 0.594091684 -s 1 -d -1 -p tcp -e 1040 -c 2 -a 0 -i 28 -k MAC
d -t 0.594092135 -s 2 -d -1 -p tcp -e 1040 -c 2 -a 0 -i 28 -k MAC
+ -t 0.595241303 -s 0 -d -1 -p tcp -e 1040 -c 2 -a 0 -i 30 -k MAC 
- -t 0.595241303 -s 0 -d -1 -p tcp -e 1040 -c 2 -a 0 -i 30 -k MAC
h -t 0.595241303 -s 0 -d -1 -p tcp -e 1040 -c 2 -a 0 -i 30 -k MAC
+ -t 0.595791684 -s 1 -d -1 -p ack -e 40 -c 2 -a 0 -i 43 -k MAC 
- -t 0.595791684 -s 1 -d -1 -p ack -e 40 -c 2 -a 0 -i 43 -k MAC
h -t 0.595791684 -s 1 -d -1 -p ack -e 40 -c 2 -a 0 -i 43 -k MAC
r -t 0.599401684 -s 1 -d -1 -p tcp -e 1040 -c 2 -a 0 -i 30 -k MAC
d -t 0.599402135 -s 2 -d -1 -p tcp -e 1040 -c 2 -a 0 -i 30 -k MAC
+ -t 0.600351684 -s 1 -d -1 -p ack -e 40 -c 2 -a 0 -i 44 -k MAC 
- -t 0.600351684 -s 1 -d -1 -p ack -e 40 -c 2 -a 0 -i 44 -k MAC
h -t 0.600351684 -s 1 -d -1 -p ack -e 40 -c 2 -a 0 -i 44 -k MAC
r -t 0.600512064 -s 0 -d -1 -p ack -e 40 -c 2 -a 0 -i 44 -k MAC
+ -t 0.600951303 -s 0 -d -1 -p tcp -e 1040 -c 2 -a 0 -i 31 -k MAC 
- -t 0.600951303 -s 0 -d -1 -p tcp -e 1040 -c 2 -a 0 -i 31 -k MAC
h -t 0.600951303 -s 0 -d -1 -p tcp -e 1040 -c 2 -a 0 -i 31 -k MAC
r -t 0.605111683 -s 1 -d -1 -p tcp -e 1040 -c 2 -a 0 -i 31 -k MAC
+ -t 0.605461303 -s 0 -d -1 -p tcp -e 1040 -c 2 -a 0 -i 33 -k MAC 
- -t 0.605461303 -s 0 -d -1 -p tcp -e 1040 -c 2 -a 0 -i 33 -k MAC
h -t 0.605461303 -s 0 -d -1 -p tcp -e 1040 -c 2 -a 0 -i 33 -k MAC
+ -t 0.605611683 -s 1 -d -1 -p ack -e 40 -c 2 -a 0 -i 49 -k MAC 
- -t 0.605611683 -s 1 -d -1 -p ack -e 40 -c 2 -a 0 -i 49 -k MAC
h -t 0.605611683 -s 1 -d -1 -p ack -e 40 -c 2 -a 0 -i 49 -k MAC
r -t 0.609621683 -s 1 -d -1 -p tcp -e 1040 -c 2 -a 0 -i 33 -k MAC
d -t 0.609622134 -s 2 -d -1 -p tcp -e 1040 -c 2 -a 0 -i 33 -k MAC
+ -t 0.609871683 -s 1 -d -1 -p ack -e 40 -c 2 -a 0 -i 50 -k MAC 
- -t 0.609871683 -s 1 -d -1 -p ack -e 40 -c 2 -a 0 -i 50 -k MAC
h -t 0.609871683 -s 1 -d -1 -p ack -e 40 -c 2 -a 0 -i 50 -k MAC
r -t 0.610032064 -s 0 -d -1 -p ack -e 40 -c 2 -a 0 -i 50 -k MAC
+ -t 0.610871303 -s 0 -d -1 -p tcp -e 1040 -c 2 -a 0 -i 34 -k MAC 
- -t 0.610871303 -s 0 -d -1 -p tcp -e 1040 -c 2 -a 0 -i 34 -k MAC
h -t 0.610871303 -s 0 -d -1 -p tcp -e 1040 -c 2 -a 0 -i 34 -k MAC
r -t 0.615031683 -s 1 -d -1 -p tcp -e 1040 -c 2 -a 0 -i 34 -k MAC
+ -t 0.616231303 -s 0 -d -1 -p tcp -e 1040 -c 2 -a 0 -i 38 -k MAC 
- -t 0.616231303 -s 0 -d -1 -p tcp -e 1040 -c 2 -a 0 -i 38 -k MAC
h -t 0.616231303 -s 0 -d -1 -p tcp -e 1040 -c 2 -a 0 -i 38 -k MAC
+ -t 0.616931683 -s 1 -d -1 -p ack -e 40 -c 2 -a 0 -i 54 -k MAC 
- -t 0.616931683 -s 1 -d -1 -p ack -e 40 -c 2 -a 0 -i 54 -k MAC
h -t 0.616931683 -s 1 -d -1 -p ack -e 40 -c 2 -a 0 -i 54 -k MAC
r -t 0.620391683 -s 1 -d -1 -p tcp -e 1040 -c 2 -a 0 -i 38 -k MAC
d -t 0.620392134 -s 2 -d -1 -p tcp -e 1040 -c 2 -a 0 -i 38 -k MAC
+ -t 0.620891683 -s 1 -d -1 -p ack -e 40 -c 2 -a 0 -i 55 -k MAC 
- -t 0.620891683 -s 1 -d -1 -p ack -e 40 -c 2 -a 0 -i 55 -k MAC
h -t 0.620891683 -s 1 -d -1 -p ack -e 40 -c 2 -a 0 -i 55 -k MAC
+ -t 0.620991303 -s 0 -d -1 -p tcp -e 1040 -c 2 -a 0 -i 39 -k MAC 
- -t 0.620991303 -s 0 -d -1 -p tcp -e 1040 -c 2 -a 0 -i 39 -k MAC
h -t 0.620991303 -s 0 -d -1 -p tcp -e 1040 -c 2 -a 0 -i 39 -k MAC
d -t 0.625151683 -s 1 -d -1 -p tcp -e 1040 -c 2 -a 0 -i 39 -k MAC
+ -t 0.626401303 -s 0 -d -1 -p tcp -e 1040 -c 2 -a 0 -i 40 -k MAC 
- -t 0.626401303 -s 0 -d -1 -p tcp -e 1040 -c 2 -a 0 -i 40 -k MAC
h -t 0.626401303 -s 0 -d -1 -p tcp -e 1040 -c 2 -a 0 -i 40 -k MAC
r -t 0.630561682 -s 1 -d -1 -p tcp -e 1040 -c 2 -a 0 -i 40 -k MAC
+ -t 0.630711303 -s 0 -d -1 -p tcp -e 1040 -c 2 -a 0 -i 41 -k MAC 
- -t 0.630711303 -s 0 -d -1 -p tcp -e 1040 -c 2 -a 0 -i 41 -k MAC
h -t 0.630711303 -s 0 -d -1 -p tcp -e 1040 -c 2 -a 0 -i 41 -k MAC
+ -t 0.632311682 -s 1 -d -1 -p ack -e 40 -c 2 -a 0 -i 56 -k MAC 
- -t 0.632311682 -s 1 -d -1 -p ack -e 40 -c 2 -a 0 -i 56 -k MAC
h -t 0.632311682 -s 1 -d -1 -p ack -e 40 -c 2 -a 0 -i 56 -k MAC
r -t 0.634871682 -s 1 -d -1 -p tcp -e 1040 -c 2 -a 0 -i 41 -k MAC
d -t 0.634872133 -s 2 -d -1 -p tcp -e 1040 -c 2 -a 0 -i 41 -k MAC
+ -t 0.635171303 -s 0 -d -1 -p tcp -e 1040 -c 2 -a 0 -i 45 -k MAC 
- -t 0.635171303 -s 0 -d -1 -p tcp -e 1040 -c 2 -a 0 -i 45 -k MAC
h -t 0.635171303 -s 0 -d -1 -p tcp -e 1040 -c 2 -a 0 -i 45 -k MAC
+ -t 0.636371682 -s 1 -d -1 -p ack -e 40 -c 2 -a 0 -i 57 -k MAC 
- -t 0.636371682 -s 1 -d -1 -p ack -e 40 -c 2 -a 0 -i 57 -k MAC
h -t 0.636371682 -s 1 -d -1 -p ack -e 40 -c 2 -a 0 -i 57 -k MAC
r -t 0.639331682 -s 1 -d -1 -p tcp -e 1040 -c 2 -a 0 -i 45 -k MAC
d -t 0.639332132 -s 2 -d -1 -p tcp -e 1040 -c 2 -a 0 -i 45 -k MAC
+ -t 0.640381303 -s 0 -d -1 -p tcp -e 1040 -c 2 -a 0 -i 46 -k MAC 
- -t 0.640381303 -s 0 -d -1 -p tcp -e 1040 -c 2 -a 0 -i 46 -k MAC
h -t 0.640381303 -s 0 -d -1 -p tcp -e 1040 -c 2 -a 0 -i 46 -k MAC
+ -t 0.640531682 -s 1 -d -1 -p ack -e 40 -c 2 -a 0 -i 58 -k MAC 
- -t 0.640531682 -s 1 -d -1 -p ack -e 40 -c 2 -a 0 -i 58 -k MAC
h -t 0.640531682 -s 1 -d -1 -p ack -e 40 -c 2 -a 0 -i 58 -k MAC
r -t 0.644541682 -s 1 -d -1 -p tcp -e 1040 -c 2 -a 0 -i 46 -k MAC
d -t 0.644542132 -s 2 -d -1 -p tcp -e 1040 -c 2 -a 0 -i 46 -k MAC
+ -t 0.644891682 -s 1 -d -1 -p ack -e 40 -c 2 -a 0 -i 59 -k MAC 
- -t 0.644891682 -s 1 -d -1 -p ack -e 40 -c 2 -a 0 -i 59 -k MAC
h -t 0.644891682 -s 1 -d -1 -p ack -e 40 -c 2 -a 0 -i 59 -k MAC
r -t 0.645052061 -s 0 -d -1 -p ack -e 40 -c 2 -a 0 -i 59 -k MAC
+ -t 0.645741303 -s 0 -d -1 -p tcp -e 1040 -c 2 -a 0 -i 47 -k MAC 
- -t 0.645741303 -s 0 -d -1 -p tcp -e 1040 -c 2 -a 0 -i 47 -k MAC
h -t 0.645741303 -s 0 -d -1 -p tcp -e 1040 -c 2 -a 0 -i 47 -k MAC
r -t 0.649901682 -s 1 -d -1 -p tcp -e 1040 -c 2 -a 0 -i 47 -k MAC
+ -t 0.650051303 -s 0 -d -1 -p tcp -e 1040 -c 2 -a 0 -i 48 -k MAC 
- -t 0.650051303 -s 0 -d -1 -p tcp -e 1040 -c 2 -a 0 -i 48 -k MAC
h -t 0.650051303 -s 0 -d -1 -p tcp -e 1040 -c 2 -a 0 -i 48 -k MAC
+ -t 0.650951682 -s 1 -d -1 -p ack -e 40 -c 2 -a 0 -i 63 -k MAC 
- -t 0.650951682 -s 1 -d -1 -p ack -e 40 -c 2 -a 0 -i 63 -k MAC
h -t 0.650951682 -s 1 -d -1 -p ack -e 40 -c 2 -a 0 -i 63 -k MAC
r -t 0.654211682 -s 1 -d -1 -p tcp -e 1040 -c 2 -a 0 -i 48 -k MAC
d -t 0.654212131 -s 2 -d -1 -p tcp -e 1040 -c 2 -a 0 -i 48 -k MAC
+ -t 0.654511682 -s 1 -d -1 -p ack -e 40 -c 2 -a 0 -i 64 -k MAC 
- -t 0.654511682 -s 1 -d -1 -p ack -e 40 -c 2 -a 0 -i 64 -k MAC
h -t 0.654511682 -s 1 -d -1 -p ack -e 40 -c 2 -a 0 -i 64 -k MAC
r -t 0.654672061 -s 0 -d -1 -p ack -e 40 -c 2 -a 0 -i 64 -k MAC
+ -t 0.655461303 -s 0 -d -1 -p tcp -e 1040 -c 2 -a 0 -i 51 -k MAC 
- -t 0.655461303 -s 0 -d -1 -p tcp -e 1040 -c 2 -a 0 -i 51 -k MAC
h -t 0.655461303 -s 0 -d -1 -p tcp -e 1040 -c 2 -a 0 -i 51 -k MAC
r -t 0.659621682 -s 1 -d -1 -p tcp -e 1040 -c 2 -a 0 -i 51 -k MAC
+ -t 0.660371303 -s 0 -d -1 -p tcp -e 1040 -c 2 -a 0 -i 52 -k MAC 
- -t 0.660371303 -s 0 -d -1 -p tcp -e 1040 -c 2 -a 0 -i 52 -k MAC
h -t 0.660371303 -s 0 -d -1 -p tcp -e 1040 -c 2 -a 0 -i 52 -k MAC
+ -t 0.661071682 -s 1 -d -1 -p ack -e 40 -c 2 -a 0 -i 66 -k MAC 
- -t 0.661071682 -s 1 -d -1 -p ack -e 40 -c 2 -a 0 -i 66 -k MAC
h -t 0.661071682 -s 1 -d -1 -p ack -e 40 -c 2 -a 0 -i 66 -k MAC
r -t 0.664531681 -s 1 -d -1 -p tcp -e 1040 -c 2 -a 0 -i 52 -k MAC
d -t 0.664532131 -s 2 -d -1 -p tcp -e 1040 -c 2 -a 0 -i 52 -k MAC
+ -t 0.664681303 -s 0 -d -1 -p tcp -e 1040 -c 2 -a 0 -i 53 -k MAC 
- -t 0.664681303 -s 0 -d -1 -p tcp -e 1040 -c 2 -a 0 -i 53 -k MAC
h -t 0.664681303 -s 0 -d -1 -p tcp -e 1040 -c 2 -a 0 -i 53 -k MAC
+ -t 0.666431681 -s 1 -d -1 -p ack -e 40 -c 2 -a 0 -i 67 -k MAC 
- -t 0.666431681 -s 1 -d -1 -p ack -e 40 -c 2 -a 0 -i 67 -k MAC
h -t 0.666431681 -s 1 -d -1 -p ack -e 40 -c 2 -a 0 -i 67 -k MAC
r -t 0.668841681 -s 1 -d -1 -p tcp -e 1040 -c 2 -a 0 -i 53 -k MAC
d -t 0.668842130 -s 2 -d -1 -p tcp -e 1040 -c 2 -a 0 -i 53 -k MAC
+ -t 0.670191303 -s 0 -d -1 -p tcp -e 1040 -c 2 -a 0 -i 60 -k MAC 
- -t 0.670191303 -s 0 -d -1 -p tcp -e 1040 -c 2 -a 0 -i 60 -k MAC
h -t 0.670191303 -s 0 -d -1 -p tcp -e 1040 -c 2 -a 0 -i 60 -k MAC
+ -t 0.670591681 -s 1 -d -1 -p ack -e 40 -c 2 -a 0 -i 68 -k MAC 
- -t 0.670591681 -s 1 -d -1 -p ack -e 40 -c 2 -a 0 -i 68 -k MAC
h -t 0.670591681 -s 1 -d -1 -p ack -e 40 -c 2 -a 0 -i 68 -k MAC
r -t 0.674351681 -s 1 -d -1 -p tcp -e 1040 -c 2 -a 0 -i 60 -k MAC
d -t 0.674352130 -s 2 -d -1 -p tcp -e 1040 -c 2 -a 0 -i 60 -k MAC
+ -t 0.674651303 -s 0 -d -1 -p tcp -e 1040 -c 2 -a 0 -i 61 -k MAC 
- -t 0.674651303 -s 0 -d -1 -p tcp -e 1040 -c 2 -a 0 -i 61 -k MAC
h -t 0.674651303 -s 0 -d -1 -p tcp -e 1040 -c 2 -a 0 -i 61 -k MAC
+ -t 0.675001681 -s 1 -d -1 -p ack -e 40 -c 2 -a 0 -i 69 -k MAC 
- -t 0.675001681 -s 1 -d -1 -p ack -e 40 -c 2 -a 0 -i 69 -k MAC
h -t 0.675001681 -s 1 -d -1 -p ack -e 40 -c 2 -a 0 -i 69 -k MAC
r -t 0.678811681 -s 1 -d -1 -p tcp -e 1040 -c 2 -a 0 -i 61 -k MAC
d -t 0.678812130 -s 2 -d -1 -p tcp -e 1040 -c 2 -a 0 -i 61 -k MAC
+ -t 0.679361303 -s 0 -d -1 -p tcp -e 1040 -c 2 -a 0 -i 62 -k MAC 
- -t 0.679361303 -s 0 -d -1 -p tcp -e 1040 -c 2 -a 0 -i 62 -k MAC
h -t 0.679361303 -s 0 -d -1 -p tcp -e 1040 -c 2 -a 0 -i 62 -k MAC
+ -t 0.679361681 -s 1 -d -1 -p ack -e 40 -c 2 -a 0 -i 70 -k MAC 
- -t 0.679361681 -s 1 -d -1 -p ack -e 40 -c 2 -a 0 -i 70 -k MAC
h -t 0.679361681 -s 1 -d -1 -p ack -e 40 -c 2 -a 0 -i 70 -k MAC
r -t 0.683521681 -s 1 -d -1 -p tcp -e 1040 -c 2 -a 0 -i 62 -k MAC
d -t 0.683522129 -s 2 -d -1 -p tcp -e 1040 -c 2 -a 0 -i 62 -k MAC
+ -t 0.684221303 -s 0 -d -1 -p tcp -e 1040 -c 2 -a 0 -i 65 -k MAC 
- -t 0.684221303 -s 0 -d -1 -p tcp -e 1040 -c 2 -a 0 -i 65 -k MAC
h -t 0.684221303 -s 0 -d -1 -p tcp -e 1040 -c 2 -a 0 -i 65 -k MAC
+ -t 0.685021681 -s 1 -d -1 -p ack -e 40 -c 2 -a 0 -i 71 -k MAC 
- -t 0.685021681 -s 1 -d -1 -p ack -e 40 -c 2 -a 0 -i 71 -k MAC
h -t 0.685021681 -s 1 -d -1 -p ack -e 40 -c 2 -a 0 -i 71 -k MAC
r -t 0.688381681 -s 1 -d -1 -p tcp -e 1040 -c 2 -a 0 -i 65 -k MAC
d -t 0.688382129 -s 2 -d -1 -p tcp -e 1040 -c 2 -a 0 -i 65 -k MAC
+ -t 0.690381681 -s 1 -d -1 -p ack -e 40 -c 2 -a 0 -i 72 -k MAC 
- -t 0.690381681 -s 1 -d -1 -p ack -e 40 -c 2 -a 0 -i 72 -k MAC
h -t 0.690381681 -s 1 -d -1 -p ack -e 40 -c 2 -a 0 -i 72 -k MAC
r -t 0.690542058 -s 0 -d -1 -p ack -e 40 -c 2 -a 0 -i 72 -k MAC
+ -t 0.692342058 -s 0 -d -1 -p tcp -e 1040 -c 2 -a 0 -i 73 -k MAC 
- -t 0.692342058 -s 0 -d -1 -p tcp -e 1040 -c 2 -a 0 -i 73 -k MAC
h -t 0.692342058 -s 0 -d -1 -p tcp -e 1040 -c 2 -a 0 -i 73 -k MAC
r -t 0.696502436 -s 1 -d -1 -p tcp -e 1040 -c 2 -a 0 -i 73 -k MAC
+ -t 0.696852436 -s 1 -d -1 -p ack -e 40 -c 2 -a 0 -i 74 -k MAC 
- -t 0.696852436 -s 1 -d -1 -p ack -e 40 -c 2 -a 0 -i 74 -k MAC
h -t 0.696852436 -s 1 -d -1 -p ack -e 40 -c 2 -a 0 -i 74 -k MAC
r -t 0.697012813 -s 0 -d -1 -p ack -e 40 -c 2 -a 0 -i 74 -k MAC
+ -t 0.698262813 -s 0 -d -1 -p tcp -e 1040 -c 2 -a 0 -i 75 -k MAC 
- -t 0.698262813 -s 0 -d -1 -p tcp -e 1040 -c 2 -a 0 -i 75 -k MAC
h -t 0.698262813 -s 0 -d -1 -p tcp -e 1040 -c 2 -a 0 -i 75 -k MAC
r -t 0.702423191 -s 1 -d -1 -p tcp -e 1040 -c 2 -a 0 -i 75 -k MAC
+ -t 0.702473191 -s 1 -d -1 -p ack -e 40 -c 2 -a 0 -i 76 -k MAC 
- -t 0.702473191 -s 1 -d -1 -p ack -e 40 -c 2 -a 0 -i 76 -k MAC
h -t 0.702473191 -s 1 -d -1 -p ack -e 40 -c 2 -a 0 -i 76 -k MAC
r -t 0.702633568 -s 0 -d -1 -p ack -e 40 -c 2 -a 0 -i 76 -k MAC
+ -t 0.703633568 -s 0 -d -1 -p tcp -e 1040 -c 2 -a 0 -i 77 -k MAC 
- -t 0.703633568 -s 0 -d -1 -p tcp -e 1040 -c 2 -a 0 -i 77 -k MAC
h -t 0.703633568 -s 0 -d -1 -p tcp -e 1040 -c 2 -a 0 -i 77 -k MAC
r -t 0.707793945 -s 1 -d -1 -p tcp -e 1040 -c 2 -a 0 -i 77 -k MAC
+ -t 0.708843945 -s 1 -d -1 -p ack -e 40 -c 2 -a 0 -i 79 -k MAC 
- -t 0.708843945 -s 1 -d -1 -p ack -e 40 -c 2 -a 0 -i 79 -k MAC
h -t 0.708843945 -s 1 -d -1 -p ack -e 40 -c 2 -a 0 -i 79 -k MAC
r -t 0.709004322 -s 0 -d -1 -p ack -e 40 -c 2 -a 0 -i 79 -k MAC
+ -t 0.709243568 -s 0 -d -1 -p tcp -e 1040 -c 2 -a 0 -i 78 -k MAC 
- -t 0.709243568 -s 0 -d -1 -p tcp -e 1040 -c 2 -a 0 -i 78 -k MAC
h -t 0.709243568 -s 0 -d -1 -p tcp -e 1040 -c 2 -a 0 -i 78 -k MAC
r -t 0.713403945 -s 1 -d -1 -p tcp -e 1040 -c 2 -a 0 -i 78 -k MAC
+ -t 0.713803945 -s 1 -d -1 -p ack -e 40 -c 2 -a 0 -i 82 -k MAC 
- -t 0.713803945 -s 1 -d -1 -p ack -e 40 -c 2 -a 0 -i 82 -k MAC
h -t 0.713803945 -s 1 -d -1 -p ack -e 40 -c 2 -a 0 -i 82 -k MAC
r -t 0.713964322 -s 0 -d -1 -p ack -e 40 -c 2 -a 0 -i 82 -k MAC
+ -t 0.714253568 -s 0 -d -1 -p tcp -e 1040 -c 2 -a 0 -i 80 -k MAC 
- -t 0.714253568 -s 0 -d -1 -p tcp -e 1040 -c 2 -a 0 -i 80 -k MAC
h -t 0.714253568 -s 0 -d -1 -p tcp -e 1040 -c 2 -a 0 -i 80 -k MAC
r -t 0.718413945 -s 1 -d -1 -p tcp -e 1040 -c 2 -a 0 -i 80 -k MAC
+ -t 0.719563568 -s 0 -d -1 -p tcp -e 1040 -c 2 -a 0 -i 81 -k MAC 
- -t 0.719563568 -s 0 -d -1 -p tcp -e 1040 -c 2 -a 0 -i 81 -k MAC
h -t 0.719563568 -s 0 -d -1 -p tcp -e 1040 -c 2 -a 0 -i 81 -k MAC
+ -t 0.720213945 -s 1 -d -1 -p ack -e 40 -c 2 -a 0 -i 85 -k MAC 
- -t 0.720213945 -s 1 -d -1 -p ack -e 40 -c 2 -a 0 -i 85 -k MAC
h -t 0.720213945 -s 1 -d -1 -p ack -e 40 -c 2 -a 0 -i 85 -k MAC
r -t 0.723723945 -s 1 -d -1 -p tcp -e 1040 -c 2 -a 0 -i 81 -k MAC
d -t 0.723724392 -s 2 -d -1 -p tcp -e 1040 -c 2 -a 0 -i 81 -k MAC
+ -t 0.724223568 -s 0 -d -1 -p tcp -e 1040 -c 2 -a 0 -i 83 -k MAC 
- -t 0.724223568 -s 0 -d -1 -p tcp -e 1040 -c 2 -a 0 -i 83 -k MAC
h -t 0.724223568 -s 0 -d -1 -p tcp -e 1040 -c 2 -a 0 -i 83 -k MAC
+ -t 0.725273945 -s 1 -d -1 -p ack -e 40 -c 2 -a 0 -i 86 -k MAC 
- -t 0.725273945 -s 1 -d -1 -p ack -e 40 -c 2 -a 0 -i 86 -k MAC
h -t 0.725273945 -s 1 -d -1 -p ack -e 40 -c 2 -a 0 -i 86 -k MAC
r -t 0.728383945 -s 1 -d -1 -p tcp -e 1040 -c 2 -a 0 -i 83 -k MAC
d -t 0.728384392 -s 2 -d -1 -p tcp -e 1040 -c 2 -a 0 -i 83 -k MAC
+ -t 0.728683945 -s 1 -d -1 -p ack -e 40 -c 2 -a 0 -i 87 -k MAC 
- -t 0.728683945 -s 1 -d -1 -p ack -e 40 -c 2 -a 0 -i 87 -k MAC
h -t 0.728683945 -s 1 -d -1 -p ack -e 40 -c 2 -a 0 -i 87 -k MAC
r -t 0.728844321 -s 0 -d -1 -p ack -e 40 -c 2 -a 0 -i 87 -k MAC
+ -t 0.729333568 -s 0 -d -1 -p tcp -e 1040 -c 2 -a 0 -i 84 -k MAC 
- -t 0.729333568 -s 0 -d -1 -p tcp -e 1040 -c 2 -a 0 -i 84 -k MAC
h -t 0.729333568 -s 0 -d -1 -p tcp -e 1040 -c 2 -a 0 -i 84 -k MAC
r -t 0.733493944 -s 1 -d -1 -p tcp -e 1040 -c 2 -a 0 -i 84 -k MAC
+ -t 0.733593944 -s 1 -d -1 -p ack -e 40 -c 2 -a 0 -i 92 -k MAC 
- -t 0.733593944 -s 1 -d -1 -p ack -e 40 -c 2 -a 0 -i 92 -k MAC
h -t 0.733593944 -s 1 -d -1 -p ack -e 40 -c 2 -a 0 -i 92 -k MAC
r -t 0.733754321 -s 0 -d -1 -p ack -e 40 -c 2 -a 0 -i 92 -k MAC
+ -t 0.733993568 -s 0 -d -1 -p tcp -e 1040 -c 2 -a 0 -i 88 -k MAC 
- -t 0.733993568 -s 0 -d -1 -p tcp -e 1040 -c 2 -a 0 -i 88 -k MAC
h -t 0.733993568 -s 0 -d -1 -p tcp -e 1040 -c 2 -a 0 -i 88 -k MAC
r -t 0.738153944 -s 1 -d -1 -p tcp -e 1040 -c 2 -a 0 -i 88 -k MAC
+ -t 0.738303568 -s 0 -d -1 -p tcp -e 1040 -c 2 -a 0 -i 89 -k MAC 
- -t 0.738303568 -s 0 -d -1 -p tcp -e 1040 -c 2 -a 0 -i 89 -k MAC
h -t 0.738303568 -s 0 -d -1 -p tcp -e 1040 -c 2 -a 0 -i 89 -k MAC
+ -t 0.738503944 -s 1 -d -1 -p ack -e 40 -c 2 -a 0 -i 95 -k MAC 
- -t 0.738503944 -s 1 -d -1 -p ack -e 40 -c 2 -a 0 -i 95 -k MAC
h -t 0.738503944 -s 1 -d -1 -p ack -e 40 -c 2 -a 0 -i 95 -k MAC
r -t 0.742463944 -s 1 -d -1 -p tcp -e 1040 -c 2 -a 0 -i 89 -k MAC
d -t 0.742464391 -s 2 -d -1 -p tcp -e 1040 -c 2 -a 0 -i 89 -k MAC
+ -t 0.743313568 -s 0 -d -1 -p tcp -e 1040 -c 2 -a 0 -i 90 -k MAC 
- -t 0.743313568 -s 0 -d -1 -p tcp -e 1040 -c 2 -a 0 -i 90 -k MAC
h -t 0.743313568 -s 0 -d -1 -p tcp -e 1040 -c 2 -a 0 -i 90 -k MAC
+ -t 0.744113944 -s 1 -d -1 -p ack -e 40 -c 2 -a 0 -i 96 -k MAC 
- -t 0.744113944 -s 1 -d -1 -p ack -e 40 -c 2 -a 0 -i 96 -k MAC
h -t 0.744113944 -s 1 -d -1 -p ack -e 40 -c 2 -a 0 -i 96 -k MAC
r -t 0.747473944 -s 1 -d -1 -p tcp -e 1040 -c 2 -a 0 -i 90 -k MAC
d -t 0.747474391 -s 2 -d -1 -p tcp -e 1040 -c 2 -a 0 -i 90 -k MAC
+ -t 0.747773568 -s 0 -d -1 -p tcp -e 1040 -c 2 -a 0 -i 91 -k MAC 
- -t 0.747773568 -s 0 -d -1 -p tcp -e 1040 -c 2 -a 0 -i 91 -k MAC
h -t 0.747773568 -s 0 -d -1 -p tcp -e 1040 -c 2 -a 0 -i 91 -k MAC
+ -t 0.748023944 -s 1 -d -1 -p ack -e 40 -c 2 -a 0 -i 97 -k MAC 
- -t 0.748023944 -s 1 -d -1 -p ack -e 40 -c 2 -a 0 -i 97 -k MAC
h -t 0.748023944 -s 1 -d -1 -p ack -e 40 -c 2 -a 0 -i 97 -k MAC
r -t 0.751933944 -s 1 -d -1 -p tcp -e 1040 -c 2 -a 0 -i 91 -k MAC
d -t 0.751934390 -s 2 -d -1 -p tcp -e 1040 -c 2 -a 0 -i 91 -k MAC
+ -t 0.753083568 -s 0 -d -1 -p tcp -e 1040 -c 2 -a 0 -i 93 -k MAC 
- -t 0.753083568 -s 0 -d -1 -p tcp -e 1040 -c 2 -a 0 -i 93 -k MAC
h -t 0.753083568 -s 0 -d -1 -p tcp -e 1040 -c 2 -a 0 -i 93 -k MAC
+ -t 0.753533944 -s 1 -d -1 -p ack -e 40 -c 2 -a 0 -i 98 -k MAC 
- -t 0.753533944 -s 1 -d -1 -p ack -e 40 -c 2 -a 0 -i 98 -k MAC
h -t 0.753533944 -s 1 -d -1 -p ack -e 40 -c 2 -a 0 -i 98 -k MAC
r -t 0.757243944 -s 1 -d -1 -p tcp -e 1040 -c 2 -a 0 -i 93 -k MAC
d -t 0.757244390 -s 2 -d -1 -p tcp -e 1040 -c 2 -a 0 -i 93 -k MAC
+ -t 0.757793568 -s 0 -d -1 -p tcp -e 1040 -c 2 -a 0 -i 94 -k MAC 
- -t 0.757793568 -s 0 -d -1 -p tcp -e 1040 -c 2 -a 0 -i 94 -k MAC
h -t 0.757793568 -s 0 -d -1 -p tcp -e 1040 -c 2 -a 0 -i 94 -k MAC
+ -t 0.758743944 -s 1 -d -1 -p ack -e 40 -c 2 -a 0 -i 99 -k MAC 
- -t 0.758743944 -s 1 -d -1 -p ack -e 40 -c 2 -a 0 -i 99 -k MAC
h -t 0.758743944 -s 1 -d -1 -p ack -e 40 -c 2 -a 0 -i 99 -k MAC
r -t 0.761953943 -s 1 -d -1 -p tcp -e 1040 -c 2 -a 0 -i 94 -k MAC
d -t 0.761954390 -s 2 -d -1 -p tcp -e 1040 -c 2 -a 0 -i 94 -k MAC
+ -t 0.762703943 -s 1 -d -1 -p ack -e 40 -c 2 -a 0 -i 100 -k MAC 
- -t 0.762703943 -s 1 -d -1 -p ack -e 40 -c 2 -a 0 -i 100 -k MAC
h -t 0.762703943 -s 1 -d -1 -p ack -e 40 -c 2 -a 0 -i 100 -k MAC
r -t 0.762864319 -s 0 -d -1 -p ack -e 40 -c 2 -a 0 -i 100 -k MAC
+ -t 0.763664319 -s 0 -d -1 -p tcp -e 1040 -c 2 -a 0 -i 101 -k MAC 
- -t 0.763664319 -s 0 -d -1 -p tcp -e 1040 -c 2 -a 0 -i 101 -k MAC
h -t 0.763664319 -s 0 -d -1 -p tcp -e 1040 -c 2 -a 0 -i 101 -k MAC
r -t 0.767824694 -s 1 -d -1 -p tcp -e 1040 -c 2 -a 0 -i 101 -k MAC
+ -t 0.768174319 -s 0 -d -1 -p tcp -e 1040 -c 2 -a 0 -i 102 -k MAC 
- -t 0.768174319 -s 0 -d -1 -p tcp -e 1040 -c 2 -a 0 -i 102 -k MAC
h -t 0.768174319 -s 0 -d -1 -p tcp -e 1040 -c 2 -a 0 -i 102 -k MAC
+ -t 0.768524694 -s 1 -d -1 -p ack -e 40 -c 2 -a 0 -i 107 -k MAC 
- -t 0.768524694 -s 1 -d -1 -p ack -e 40 -c 2 -a 0 -i 107 -k MAC
h -t 0.768524694 -s 1 -d -1 -p ack -e 40 -c 2 -a 0 -i 107 -k MAC
r -t 0.772334694 -s 1 -d -1 -p tcp -e 1040 -c 2 -a 0 -i 102 -k MAC
d -t 0.772335140 -s 2 -d -1 -p tcp -e 1040 -c 2 -a 0 -i 102 -k MAC
+ -t 0.772734319 -s 0 -d -1 -p tcp -e 1040 -c 2 -a 0 -i 103 -k MAC 
- -t 0.772734319 -s 0 -d -1 -p tcp -e 1040 -c 2 -a 0 -i 103 -k MAC
h -t 0.772734319 -s 0 -d -1 -p tcp -e 1040 -c 2 -a 0 -i 103 -k MAC
+ -t 0.773884694 -s 1 -d -1 -p ack -e 40 -c 2 -a 0 -i 108 -k MAC 
- -t 0.773884694 -s 1 -d -1 -p ack -e 40 -c 2 -a 0 -i 108 -k MAC
h -t 0.773884694 -s 1 -d -1 -p ack -e 40 -c 2 -a 0 -i 108 -k MAC
r -t 0.776894694 -s 1 -d -1 -p tcp -e 1040 -c 2 -a 0 -i 103 -k MAC
d -t 0.776895139 -s 2 -d -1 -p tcp -e 1040 -c 2 -a 0 -i 103 -k MAC
+ -t 0.777444319 -s 0 -d -1 -p tcp -e 1040 -c 2 -a 0 -i 104 -k MAC 
- -t 0.777444319 -s 0 -d -1 -p tcp -e 1040 -c 2 -a 0 -i 104 -k MAC
h -t 0.777444319 -s 0 -d -1 -p tcp -e 1040 -c 2 -a 0 -i 104 -k MAC
+ -t 0.778744694 -s 1 -d -1 -p ack -e 40 -c 2 -a 0 -i 109 -k MAC 
- -t 0.778744694 -s 1 -d -1 -p ack -e 40 -c 2 -a 0 -i 109 -k MAC
h -t 0.778744694 -s 1 -d -1 -p ack -e 40 -c 2 -a 0 -i 109 -k MAC
r -t 0.781604693 -s 1 -d -1 -p tcp -e 1040 -c 2 -a 0 -i 104 -k MAC
d -t 0.781605139 -s 2 -d -1 -p tcp -e 1040 -c 2 -a 0 -i 104 -k MAC
+ -t 0.783254693 -s 1 -d -1 -p ack -e 40 -c 2 -a 0 -i 110 -k MAC 
- -t 0.783254693 -s 1 -d -1 -p ack -e 40 -c 2 -a 0 -i 110 -k MAC
h -t 0.783254693 -s 1 -d -1 -p ack -e 40 -c 2 -a 0 -i 110 -k MAC
r -t 0.783415068 -s 0 -d -1 -p ack -e 40 -c 2 -a 0 -i 110 -k MAC
+ -t 0.783554319 -s 0 -d -1 -p tcp -e 1040 -c 2 -a 0 -i 105 -k MAC 
- -t 0.783554319 -s 0 -d -1 -p tcp -e 1040 -c 2 -a 0 -i 105 -k MAC
h -t 0.783554319 -s 0 -d -1 -p tcp -e 1040 -c 2 -a 0 -i 105 -k MAC
r -t 0.787714693 -s 1 -d -1 -p tcp -e 1040 -c 2 -a 0 -i 105 -k MAC
+ -t 0.789264319 -s 0 -d -1 -p tcp -e 1040 -c 2 -a 0 -i 106 -k MAC 
- -t 0.789264319 -s 0 -d -1 -p tcp -e 1040 -c 2 -a 0 -i 106 -k MAC
h -t 0.789264319 -s 0 -d -1 -p tcp -e 1040 -c 2 -a 0 -i 106 -k MAC
+ -t 0.789614693 -s 1 -d -1 -p ack -e 40 -c 2 -a 0 -i 115 -k MAC 