M 0.00000 0 (0.00, 0.00, 0.00), (50.00, 50.00), 5.00
M 0.00000 1 (0.00, 0.00, 0.00), (60.00, 40.00), 10.00
M 0.00000 2 (0.00, 0.00, 0.00), (60.00, 40.00), 10.00
s 1.000055000 _1_ MAC  --- 0 ARP 86 [0 ffffffff 1 806] ------- [REQUEST 1/1 0/0]
s 1.000055000 _12_ MAC  --- 0 ARP 86 [0 ffffffff c 806] ------- [REQUEST 12/12 0/0]
s 1.000055000 _33_ MAC  --- 0 ARP 86 [0 ffffffff 21 806] ------- [REQUEST 33/33 0/0]
s 1.000055000 _35_ MAC  --- 0 ARP 86 [0 ffffffff 23 806] ------- [REQUEST 35/35 0/0]
s 1.000055000 _47_ MAC  --- 0 ARP 86 [0 ffffffff 2f 806] ------- [REQUEST 47/47 0/0]
s 1.000055000 _51_ MAC  --- 0 ARP 86 [0 ffffffff 33 806] ------- [REQUEST 51/51 0/0]
s 1.000055000 _63_ MAC  --- 0 ARP 86 [0 ffffffff 3f 806] ------- [REQUEST 63/63 0/0]
s 1.000055000 _75_ MAC  --- 0 ARP 86 [0 ffffffff 4b 806] ------- [REQUEST 75/75 0/0]
s 1.000055000 _85_ MAC  --- 0 ARP 86 [0 ffffffff 55 806] ------- [REQUEST 85/85 0/0]
D 1.000055000 _32_ MAC  COL 0 ARP 86 [0 ffffffff 21 806] ------- [REQUEST 33/33 0/0]
D 1.000055000 _31_ MAC  COL 0 ARP 86 [0 ffffffff 21 806] ------- [REQUEST 33/33 0/0]
D 1.000055000 _30_ MAC  COL 0 ARP 86 [0 ffffffff 21 806] ------- [REQUEST 33/33 0/0]
D 1.000055000 _29_ MAC  COL 0 ARP 86 [0 ffffffff 21 806] ------- [REQUEST 33/33 0/0]
D 1.000055000 _28_ MAC  COL 0 ARP 86 [0 ffffffff 21 806] ------- [REQUEST 33/33 0/0]
D 1.000055000 _27_ MAC  COL 0 ARP 86 [0 ffffffff 21 806] ------- [REQUEST 33/33 0/0]
D 1.000055000 _26_ MAC  COL 0 ARP 86 [0 ffffffff 21 806] ------- [REQUEST 33/33 0/0]
D 1.000055000 _25_ MAC  COL 0 ARP 86 [0 ffffffff 21 806] ------- [REQUEST 33/33 0/0]
D 1.000055000 _24_ MAC  COL 0 ARP 86 [0 ffffffff 21 806] ------- [REQUEST 33/33 0/0]
D 1.000055000 _23_ MAC  COL 0 ARP 86 [0 ffffffff 21 806] ------- [REQUEST 33/33 0/0]
D 1.000055000 _22_ MAC  COL 0 ARP 86 [0 ffffffff 21 806] ------- [REQUEST 33/33 0/0]
D 1.000055000 _21_ MAC  COL 0 ARP 86 [0 ffffffff 21 806] ------- [REQUEST 33/33 0/0]
D 1.000055000 _20_ MAC  COL 0 ARP 86 [0 ffffffff 21 806] ------- [REQUEST 33/33 0/0]
D 1.000055000 _19_ MAC  COL 0 ARP 86 [0 ffffffff 21 806] ------- [REQUEST 33/33 0/0]
D 1.000055000 _18_ MAC  COL 0 ARP 86 [0 ffffffff 21 806] ------- [REQUEST 33/33 0/0]
D 1.000055000 _17_ MAC  COL 0 ARP 86 [0 ffffffff 21 806] ------- [REQUEST 33/33 0/0]
D 1.000055000 _16_ MAC  COL 0 ARP 86 [0 ffffffff 21 806] ------- [REQUEST 33/33 0/0]
D 1.000055000 _15_ MAC  COL 0 ARP 86 [0 ffffffff 21 806] ------- [REQUEST 33/33 0/0]
D 1.000055000 _14_ MAC  COL 0 ARP 86 [0 ffffffff 21 806] ------- [REQUEST 33/33 0/0]
D 1.000055000 _13_ MAC  COL 0 ARP 86 [0 ffffffff 21 806] ------- [REQUEST 33/33 0/0]
D 1.000055000 _11_ MAC  COL 0 ARP 86 [0 ffffffff 21 806] ------- [REQUEST 33/33 0/0]
D 1.000055000 _10_ MAC  COL 0 ARP 86 [0 ffffffff 21 806] ------- [REQUEST 33/33 0/0]
D 1.000055000 _9_ MAC  COL 0 ARP 86 [0 ffffffff 21 806] ------- [REQUEST 33/33 0/0]
D 1.000055000 _8_ MAC  COL 0 ARP 86 [0 ffffffff 21 806] ------- [REQUEST 33/33 0/0]
D 1.000055000 _7_ MAC  COL 0 ARP 86 [0 ffffffff 21 806] ------- [REQUEST 33/33 0/0]
D 1.000055000 _6_ MAC  COL 0 ARP 86 [0 ffffffff 21 806] ------- [REQUEST 33/33 0/0]
D 1.000055000 _5_ MAC  COL 0 ARP 86 [0 ffffffff 21 806] ------- [REQUEST 33/33 0/0]
D 1.000055000 _4_ MAC  COL 0 ARP 86 [0 ffffffff 21 806] ------- [REQUEST 33/33 0/0]
D 1.000055000 _3_ MAC  COL 0 ARP 86 [0 ffffffff 21 806] ------- [REQUEST 33/33 0/0]
D 1.000055000 _34_ MAC  COL 0 ARP 86 [0 ffffffff 21 806] ------- [REQUEST 33/33 0/0]
D 1.000055000 _36_ MAC  COL 0 ARP 86 [0 ffffffff 21 806] ------- [REQUEST 33/33 0/0]
D 1.000055000 _37_ MAC  COL 0 ARP 86 [0 ffffffff 21 806] ------- [REQUEST 33/33 0/0]
D 1.000055000 _38_ MAC  COL 0 ARP 86 [0 ffffffff 21 806] ------- [REQUEST 33/33 0/0]
D 1.000055000 _39_ MAC  COL 0 ARP 86 [0 ffffffff 21 806] ------- [REQUEST 33/33 0/0]
D 1.000055000 _40_ MAC  COL 0 ARP 86 [0 ffffffff 21 806] ------- [REQUEST 33/33 0/0]
D 1.000055000 _41_ MAC  COL 0 ARP 86 [0 ffffffff 21 806] ------- [REQUEST 33/33 0/0]
D 1.000055000 _42_ MAC  COL 0 ARP 86 [0 ffffffff 21 806] ------- [REQUEST 33/33 0/0]
D 1.000055000 _43_ MAC  COL 0 ARP 86 [0 ffffffff 21 806] ------- [REQUEST 33/33 0/0]
D 1.000055000 _44_ MAC  COL 0 ARP 86 [0 ffffffff 21 806] ------- [REQUEST 33/33 0/0]
D 1.000055000 _45_ MAC  COL 0 ARP 86 [0 ffffffff 21 806] ------- [REQUEST 33/33 0/0]
D 1.000055000 _46_ MAC  COL 0 ARP 86 [0 ffffffff 21 806] ------- [REQUEST 33/33 0/0]
D 1.000055000 _48_ MAC  COL 0 ARP 86 [0 ffffffff 21 806] ------- [REQUEST 33/33 0/0]
D 1.000055000 _49_ MAC  COL 0 ARP 86 [0 ffffffff 21 806] ------- [REQUEST 33/33 0/0]
D 1.000055000 _50_ MAC  COL 0 ARP 86 [0 ffffffff 21 806] ------- [REQUEST 33/33 0/0]
D 1.000055000 _52_ MAC  COL 0 ARP 86 [0 ffffffff 21 806] ------- [REQUEST 33/33 0/0]
D 1.000055000 _53_ MAC  COL 0 ARP 86 [0 ffffffff 21 806] ------- [REQUEST 33/33 0/0]
D 1.000055000 _54_ MAC  COL 0 ARP 86 [0 ffffffff 21 806] ------- [REQUEST 33/33 0/0]
D 1.000055000 _55_ MAC  COL 0 ARP 86 [0 ffffffff 21 806] ------- [REQUEST 33/33 0/0]
D 1.000055000 _56_ MAC  COL 0 ARP 86 [0 ffffffff 21 806] ------- [REQUEST 33/33 0/0]
D 1.000055000 _57_ MAC  COL 0 ARP 86 [0 ffffffff 21 806] ------- [REQUEST 33/33 0/0]
D 1.000055000 _58_ MAC  COL 0 ARP 86 [0 ffffffff 21 806] ------- [REQUEST 33/33 0/0]
D 1.000055000 _59_ MAC  COL 0 ARP 86 [0 ffffffff 21 806] ------- [REQUEST 33/33 0/0]
D 1.000055000 _60_ MAC  COL 0 ARP 86 [0 ffffffff 21 806] ------- [REQUEST 33/33 0/0]
D 1.000055000 _61_ MAC  COL 0 ARP 86 [0 ffffffff 21 806] ------- [REQUEST 33/33 0/0]
D 1.000055000 _62_ MAC  COL 0 ARP 86 [0 ffffffff 21 806] ------- [REQUEST 33/33 0/0]
D 1.000055000 _64_ MAC  COL 0 ARP 86 [0 ffffffff 21 806] ------- [REQUEST 33/33 0/0]
D 1.000055000 _65_ MAC  COL 0 ARP 86 [0 ffffffff 21 806] ------- [REQUEST 33/33 0/0]
D 1.000055000 _66_ MAC  COL 0 ARP 86 [0 ffffffff 21 806] ------- [REQUEST 33/33 0/0]
D 1.000055000 _67_ MAC  COL 0 ARP 86 [0 ffffffff 21 806] ------- [REQUEST 33/33 0/0]
D 1.000055000 _68_ MAC  COL 0 ARP 86 [0 ffffffff 21 806] ------- [REQUEST 33/33 0/0]
D 1.000055000 _69_ MAC  COL 0 ARP 86 [0 ffffffff 21 806] ------- [REQUEST 33/33 0/0]
D 1.000055000 _70_ MAC  COL 0 ARP 86 [0 ffffffff 21 806] ------- [REQUEST 33/33 0/0]
D 1.000055000 _71_ MAC  COL 0 ARP 86 [0 ffffffff 21 806] ------- [REQUEST 33/33 0/0]
D 1.000055000 _72_ MAC  COL 0 ARP 86 [0 ffffffff 21 806] ------- [REQUEST 33/33 0/0]
D 1.000055000 _73_ MAC  COL 0 ARP 86 [0 ffffffff 21 806] ------- [REQUEST 33/33 0/0]
D 1.000055000 _74_ MAC  COL 0 ARP 86 [0 ffffffff 21 806] ------- [REQUEST 33/33 0/0]
D 1.000055000 _76_ MAC  COL 0 ARP 86 [0 ffffffff 21 806] ------- [REQUEST 33/33 0/0]
D 1.000055000 _77_ MAC  COL 0 ARP 86 [0 ffffffff 21 806] ------- [REQUEST 33/33 0/0]
D 1.000055000 _78_ MAC  COL 0 ARP 86 [0 ffffffff 21 806] ------- [REQUEST 33/33 0/0]
D 1.000055000 _79_ MAC  COL 0 ARP 86 [0 ffffffff 21 806] ------- [REQUEST 33/33 0/0]
D 1.000055000 _80_ MAC  COL 0 ARP 86 [0 ffffffff 21 806] ------- [REQUEST 33/33 0/0]
D 1.000055000 _81_ MAC  COL 0 ARP 86 [0 ffffffff 21 806] ------- [REQUEST 33/33 0/0]
D 1.000055000 _82_ MAC  COL 0 ARP 86 [0 ffffffff 21 806] ------- [REQUEST 33/33 0/0]
D 1.000055000 _83_ MAC  COL 0 ARP 86 [0 ffffffff 21 806] ------- [REQUEST 33/33 0/0]
D 1.000055000 _84_ MAC  COL 0 ARP 86 [0 ffffffff 21 806] ------- [REQUEST 33/33 0/0]
D 1.000055000 _86_ MAC  COL 0 ARP 86 [0 ffffffff 21 806] ------- [REQUEST 33/33 0/0]
D 1.000055000 _87_ MAC  COL 0 ARP 86 [0 ffffffff 21 806] ------- [REQUEST 33/33 0/0]
D 1.000055000 _88_ MAC  COL 0 ARP 86 [0 ffffffff 21 806] ------- [REQUEST 33/33 0/0]
D 1.000055000 _89_ MAC  COL 0 ARP 86 [0 ffffffff 21 806] ------- [REQUEST 33/33 0/0]
D 1.000055000 _90_ MAC  COL 0 ARP 86 [0 ffffffff 21 806] ------- [REQUEST 33/33 0/0]
D 1.000055000 _91_ MAC  COL 0 ARP 86 [0 ffffffff 21 806] ------- [REQUEST 33/33 0/0]
D 1.000055000 _92_ MAC  COL 0 ARP 86 [0 ffffffff 21 806] ------- [REQUEST 33/33 0/0]
D 1.000055000 _93_ MAC  COL 0 ARP 86 [0 ffffffff 21 806] ------- [REQUEST 33/33 0/0]
D 1.000055000 _94_ MAC  COL 0 ARP 86 [0 ffffffff 21 806] ------- [REQUEST 33/33 0/0]
D 1.000055000 _95_ MAC  COL 0 ARP 86 [0 ffffffff 21 806] ------- [REQUEST 33/33 0/0]
D 1.000055000 _96_ MAC  COL 0 ARP 86 [0 ffffffff 21 806] ------- [REQUEST 33/33 0/0]
D 1.000055000 _97_ MAC  COL 0 ARP 86 [0 ffffffff 21 806] ------- [REQUEST 33/33 0/0]
D 1.000055000 _98_ MAC  COL 0 ARP 86 [0 ffffffff 21 806] ------- [REQUEST 33/33 0/0]
D 1.000055000 _99_ MAC  COL 0 ARP 86 [0 ffffffff 21 806] ------- [REQUEST 33/33 0/0]
D 1.000055000 _34_ MAC  COL 0 ARP 86 [0 ffffffff 23 806] ------- [REQUEST 35/35 0/0]
D 1.000055000 _32_ MAC  COL 0 ARP 86 [0 ffffffff 23 806] ------- [REQUEST 35/35 0/0]
D 1.000055000 _31_ MAC  COL 0 ARP 86 [0 ffffffff 23 806] ------- [REQUEST 35/35 0/0]
D 1.000055000 _30_ MAC  COL 0 ARP 86 [0 ffffffff 23 806] ------- [REQUEST 35/35 0/0]
D 1.000055000 _29_ MAC  COL 0 ARP 86 [0 ffffffff 23 806] ------- [REQUEST 35/35 0/0]
D 1.000055000 _28_ MAC  COL 0 ARP 86 [0 ffffffff 23 806] ------- [REQUEST 35/35 0/0]
D 1.000055000 _27_ MAC  COL 0 ARP 86 [0 ffffffff 23 806] ------- [REQUEST 35/35 0/0]
D 1.000055000 _26_ MAC  COL 0 ARP 86 [0 ffffffff 23 806] ------- [REQUEST 35/35 0/0]
D 1.000055000 _25_ MAC  COL 0 ARP 86 [0 ffffffff 23 806] ------- [REQUEST 35/35 0/0]
D 1.000055000 _24_ MAC  COL 0 ARP 86 [0 ffffffff 23 806] ------- [REQUEST 35/35 0/0]
D 1.000055000 _23_ MAC  COL 0 ARP 86 [0 ffffffff 23 806] ------- [REQUEST 35/35 0/0]
D 1.000055000 _22_ MAC  COL 0 ARP 86 [0 ffffffff 23 806] ------- [REQUEST 35/35 0/0]
D 1.000055000 _21_ MAC  COL 0 ARP 86 [0 ffffffff 23 806] ------- [REQUEST 35/35 0/0]
D 1.000055000 _20_ MAC  COL 0 ARP 86 [0 ffffffff 23 806] ------- [REQUEST 35/35 0/0]
D 1.000055000 _19_ MAC  COL 0 ARP 86 [0 ffffffff 23 806] ------- [REQUEST 35/35 0/0]
D 1.000055000 _18_ MAC  COL 0 ARP 86 [0 ffffffff 23 806] ------- [REQUEST 35/35 0/0]
D 1.000055000 _17_ MAC  COL 0 ARP 86 [0 ffffffff 23 806] ------- [REQUEST 35/35 0/0]
D 1.000055000 _16_ MAC  COL 0 ARP 86 [0 ffffffff 23 806] ------- [REQUEST 35/35 0/0]
D 1.000055000 _15_ MAC  COL 0 ARP 86 [0 ffffffff 23 806] ------- [REQUEST 35/35 0/0]
D 1.000055000 _14_ MAC  COL 0 ARP 86 [0 ffffffff 23 806] ------- [REQUEST 35/35 0/0]
D 1.000055000 _13_ MAC  COL 0 ARP 86 [0 ffffffff 23 806] ------- [REQUEST 35/35 0/0]
D 1.000055000 _11_ MAC  COL 0 ARP 86 [0 ffffffff 23 806] ------- [REQUEST 35/35 0/0]
D 1.000055000 _10_ MAC  COL 0 ARP 86 [0 ffffffff 23 806] ------- [REQUEST 35/35 0/0]
D 1.000055000 _9_ MAC  COL 0 ARP 86 [0 ffffffff 23 806] ------- [REQUEST 35/35 0/0]
D 1.000055000 _8_ MAC  COL 0 ARP 86 [0 ffffffff 23 806] ------- [REQUEST 35/35 0/0]
D 1.000055000 _7_ MAC  COL 0 ARP 86 [0 ffffffff 23 806] ------- [REQUEST 35/35 0/0]
D 1.000055000 _6_ MAC  COL 0 ARP 86 [0 ffffffff 23 806] ------- [REQUEST 35/35 0/0]
D 1.000055000 _5_ MAC  COL 0 ARP 86 [0 ffffffff 23 806] ------- [REQUEST 35/35 0/0]
D 1.000055000 _4_ MAC  COL 0 ARP 86 [0 ffffffff 23 806] ------- [REQUEST 35/35 0/0]
D 1.000055000 _3_ MAC  COL 0 ARP 86 [0 ffffffff 23 806] ------- [REQUEST 35/35 0/0]
D 1.000055000 _36_ MAC  COL 0 ARP 86 [0 ffffffff 23 806] ------- [REQUEST 35/35 0/0]
D 1.000055000 _37_ MAC  COL 0 ARP 86 [0 ffffffff 23 806] ------- [REQUEST 35/35 0/0]
D 1.000055000 _38_ MAC  COL 0 ARP 86 [0 ffffffff 23 806] ------- [REQUEST 35/35 0/0]
D 1.000055000 _39_ MAC  COL 0 ARP 86 [0 ffffffff 23 806] ------- [REQUEST 35/35 0/0]
D 1.000055000 _40_ MAC  COL 0 ARP 86 [0 ffffffff 23 806] ------- [REQUEST 35/35 0/0]
D 1.000055000 _41_ MAC  COL 0 ARP 86 [0 ffffffff 23 806] ------- [REQUEST 35/35 0/0]
D 1.000055000 _42_ MAC  COL 0 ARP 86 [0 ffffffff 23 806] ------- [REQUEST 35/35 0/0]
D 1.000055000 _43_ MAC  COL 0 ARP 86 [0 ffffffff 23 806] ------- [REQUEST 35/35 0/0]
D 1.000055000 _44_ MAC  COL 0 ARP 86 [0 ffffffff 23 806] ------- [REQUEST 35/35 0/0]
D 1.000055000 _45_ MAC  COL 0 ARP 86 [0 ffffffff 23 806] ------- [REQUEST 35/35 0/0]
D 1.000055000 _46_ MAC  COL 0 ARP 86 [0 ffffffff 23 806] ------- [REQUEST 35/35 0/0]
D 1.000055000 _48_ MAC  COL 0 ARP 86 [0 ffffffff 23 806] ------- [REQUEST 35/35 0/0]
D 1.000055000 _49_ MAC  COL 0 ARP 86 [0 ffffffff 23 806] ------- [REQUEST 35/35 0/0]
D 1.000055000 _50_ MAC  COL 0 ARP 86 [0 ffffffff 23 806] ------- [REQUEST 35/35 0/0]
D 1.000055000 _52_ MAC  COL 0 ARP 86 [0 ffffffff 23 806] ------- [REQUEST 35/35 0/0]
D 1.000055000 _53_ MAC  COL 0 ARP 86 [0 ffffffff 23 806] ------- [REQUEST 35/35 0/0]
D 1.000055000 _54_ MAC  COL 0 ARP 86 [0 ffffffff 23 806] ------- [REQUEST 35/35 0/0]
D 1.000055000 _55_ MAC  COL 0 ARP 86 [0 ffffffff 23 806] ------- [REQUEST 35/35 0/0]
D 1.000055000 _56_ MAC  COL 0 ARP 86 [0 ffffffff 23 806] ------- [REQUEST 35/35 0/0]
D 1.000055000 _57_ MAC  COL 0 ARP 86 [0 ffffffff 23 806] ------- [REQUEST 35/35 0/0]
D 1.000055000 _58_ MAC  COL 0 ARP 86 [0 ffffffff 23 806] ------- [REQUEST 35/35 0/0]
D 1.000055000 _59_ MAC  COL 0 ARP 86 [0 ffffffff 23 806] ------- [REQUEST 35/35 0/0]
D 1.000055000 _60_ MAC  COL 0 ARP 86 [0 ffffffff 23 806] ------- [REQUEST 35/35 0/0]
D 1.000055000 _61_ MAC  COL 0 ARP 86 [0 ffffffff 23 806] ------- [REQUEST 35/35 0/0]
D 1.000055000 _62_ MAC  COL 0 ARP 86 [0 ffffffff 23 806] ------- [REQUEST 35/35 0/0]
D 1.000055000 _64_ MAC  COL 0 ARP 86 [0 ffffffff 23 806] ------- [REQUEST 35/35 0/0]
D 1.000055000 _65_ MAC  COL 0 ARP 86 [0 ffffffff 23 806] ------- [REQUEST 35/35 0/0]
D 1.000055000 _66_ MAC  COL 0 ARP 86 [0 ffffffff 23 806] ------- [REQUEST 35/35 0/0]
D 1.000055000 _67_ MAC  COL 0 ARP 86 [0 ffffffff 23 806] ------- [REQUEST 35/35 0/0]
D 1.000055000 _68_ MAC  COL 0 ARP 86 [0 ffffffff 23 806] ------- [REQUEST 35/35 0/0]
D 1.000055000 _69_ MAC  COL 0 ARP 86 [0 ffffffff 23 806] ------- [REQUEST 35/35 0/0]
D 1.000055000 _70_ MAC  COL 0 ARP 86 [0 ffffffff 23 806] ------- [REQUEST 35/35 0/0]
D 1.000055000 _71_ MAC  COL 0 ARP 86 [0 ffffffff 23 806] ------- [REQUEST 35/35 0/0]
D 1.000055000 _72_ MAC  COL 0 ARP 86 [0 ffffffff 23 806] ------- [REQUEST 35/35 0/0]
D 1.000055000 _73_ MAC  COL 0 ARP 86 [0 ffffffff 23 806] ------- [REQUEST 35/35 0/0]
D 1.000055000 _74_ MAC  COL 0 ARP 86 [0 ffffffff 23 806] ------- [REQUEST 35/35 0/0]
D 1.000055000 _76_ MAC  COL 0 ARP 86 [0 ffffffff 23 806] ------- [REQUEST 35/35 0/0]
D 1.000055000 _77_ MAC  COL 0 ARP 86 [0 ffffffff 23 806] ------- [REQUEST 35/35 0/0]
D 1.000055000 _78_ MAC  COL 0 ARP 86 [0 ffffffff 23 806] ------- [REQUEST 35/35 0/0]
D 1.000055000 _79_ MAC  COL 0 ARP 86 [0 ffffffff 23 806] ------- [REQUEST 35/35 0/0]
D 1.000055000 _80_ MAC  COL 0 ARP 86 [0 ffffffff 23 806] ------- [REQUEST 35/35 0/0]
D 1.000055000 _81_ MAC  COL 0 ARP 86 [0 ffffffff 23 806] ------- [REQUEST 35/35 0/0]
D 1.000055000 _82_ MAC  COL 0 ARP 86 [0 ffffffff 23 806] ------- [REQUEST 35/35 0/0]
D 1.000055000 _83_ MAC  COL 0 ARP 86 [0 ffffffff 23 806] ------- [REQUEST 35/35 0/0]
D 1.000055000 _84_ MAC  COL 0 ARP 86 [0 ffffffff 23 806] ------- [REQUEST 35/35 0/0]
D 1.000055000 _86_ MAC  COL 0 ARP 86 [0 ffffffff 23 806] ------- [REQUEST 35/35 0/0]
D 1.000055000 _87_ MAC  COL 0 ARP 86 [0 ffffffff 23 806] ------- [REQUEST 35/35 0/0]
D 1.000055000 _88_ MAC  COL 0 ARP 86 [0 ffffffff 23 806] ------- [REQUEST 35/35 0/0]
D 1.000055000 _89_ MAC  COL 0 ARP 86 [0 ffffffff 23 806] ------- [REQUEST 35/35 0/0]
D 1.000055000 _90_ MAC  COL 0 ARP 86 [0 ffffffff 23 806] ------- [REQUEST 35/35 0/0]
D 1.000055000 _91_ MAC  COL 0 ARP 86 [0 ffffffff 23 806] ------- [REQUEST 35/35 0/0]
D 1.000055000 _92_ MAC  COL 0 ARP 86 [0 ffffffff 23 806] ------- [REQUEST 35/35 0/0]
D 1.000055000 _93_ MAC  COL 0 ARP 86 [0 ffffffff 23 806] ------- [REQUEST 35/35 0/0]
D 1.000055000 _94_ MAC  COL 0 ARP 86 [0 ffffffff 23 806] ------- [REQUEST 35/35 0/0]
D 1.000055000 _95_ MAC  COL 0 ARP 86 [0 ffffffff 23 806] ------- [REQUEST 35/35 0/0]
D 1.000055000 _96_ MAC  COL 0 ARP 86 [0 ffffffff 23 806] ------- [REQUEST 35/35 0/0]
D 1.000055000 _97_ MAC  COL 0 ARP 86 [0 ffffffff 23 806] ------- [REQUEST 35/35 0/0]
D 1.000055000 _98_ MAC  COL 0 ARP 86 [0 ffffffff 23 806] ------- [REQUEST 35/35 0/0]
D 1.000055000 _99_ MAC  COL 0 ARP 86 [0 ffffffff 23 806] ------- [REQUEST 35/35 0/0]
D 1.000055000 _46_ MAC  COL 0 ARP 86 [0 ffffffff 2f 806] ------- [REQUEST 47/47 0/0]
D 1.000055000 _45_ MAC  COL 0 ARP 86 [0 ffffffff 2f 806] ------- [REQUEST 47/47 0/0]
D 1.000055000 _44_ MAC  COL 0 ARP 86 [0 ffffffff 2f 806] ------- [REQUEST 47/47 0/0]
D 1.000055000 _43_ MAC  COL 0 ARP 86 [0 ffffffff 2f 806] ------- [REQUEST 47/47 0/0]
D 1.000055000 _42_ MAC  COL 0 ARP 86 [0 ffffffff 2f 806] ------- [REQUEST 47/47 0/0]
D 1.000055000 _41_ MAC  COL 0 ARP 86 [0 ffffffff 2f 806] ------- [REQUEST 47/47 0/0]
D 1.000055000 _40_ MAC  COL 0 ARP 86 [0 ffffffff 2f 806] ------- [REQUEST 47/47 0/0]
D 1.000055000 _39_ MAC  COL 0 ARP 86 [0 ffffffff 2f 806] ------- [REQUEST 47/47 0/0]
D 1.000055000 _38_ MAC  COL 0 ARP 86 [0 ffffffff 2f 806] ------- [REQUEST 47/47 0/0]
D 1.000055000 _37_ MAC  COL 0 ARP 86 [0 ffffffff 2f 806] ------- [REQUEST 47/47 0/0]
D 1.000055000 _36_ MAC  COL 0 ARP 86 [0 ffffffff 2f 806] ------- [REQUEST 47/47 0/0]
D 1.000055000 _34_ MAC  COL 0 ARP 86 [0 ffffffff 2f 806] ------- [REQUEST 47/47 0/0]
D 1.000055000 _32_ MAC  COL 0 ARP 86 [0 ffffffff 2f 806] ------- [REQUEST 47/47 0/0]
D 1.000055000 _31_ MAC  COL 0 ARP 86 [0 ffffffff 2f 806] ------- [REQUEST 47/47 0/0]
D 1.000055000 _30_ MAC  COL 0 ARP 86 [0 ffffffff 2f 806] ------- [REQUEST 47/47 0/0]
D 1.000055000 _29_ MAC  COL 0 ARP 86 [0 ffffffff 2f 806] ------- [REQUEST 47/47 0/0]
D 1.000055000 _28_ MAC  COL 0 ARP 86 [0 ffffffff 2f 806] ------- [REQUEST 47/47 0/0]
D 1.000055000 _27_ MAC  COL 0 ARP 86 [0 ffffffff 2f 806] ------- [REQUEST 47/47 0/0]
D 1.000055000 _26_ MAC  COL 0 ARP 86 [0 ffffffff 2f 806] ------- [REQUEST 47/47 0/0]
D 1.000055000 _25_ MAC  COL 0 ARP 86 [0 ffffffff 2f 806] ------- [REQUEST 47/47 0/0]
D 1.000055000 _24_ MAC  COL 0 ARP 86 [0 ffffffff 2f 806] ------- [REQUEST 47/47 0/0]
D 1.000055000 _23_ MAC  COL 0 ARP 86 [0 ffffffff 2f 806] ------- [REQUEST 47/47 0/0]
D 1.000055000 _22_ MAC  COL 0 ARP 86 [0 ffffffff 2f 806] ------- [REQUEST 47/47 0/0]
D 1.000055000 _21_ MAC  COL 0 ARP 86 [0 ffffffff 2f 806] ------- [REQUEST 47/47 0/0]
D 1.000055000 _20_ MAC  COL 0 ARP 86 [0 ffffffff 2f 806] ------- [REQUEST 47/47 0/0]
D 1.000055000 _19_ MAC  COL 0 ARP 86 [0 ffffffff 2f 806] ------- [REQUEST 47/47 0/0]
D 1.000055000 _18_ MAC  COL 0 ARP 86 [0 ffffffff 2f 806] ------- [REQUEST 47/47 0/0]
D 1.000055000 _17_ MAC  COL 0 ARP 86 [0 ffffffff 2f 806] ------- [REQUEST 47/47 0/0]
D 1.000055000 _16_ MAC  COL 0 ARP 86 [0 ffffffff 2f 806] ------- [REQUEST 47/47 0/0]
D 1.000055000 _15_ MAC  COL 0 ARP 86 [0 ffffffff 2f 806] ------- [REQUEST 47/47 0/0]
D 1.000055000 _14_ MAC  COL 0 ARP 86 [0 ffffffff 2f 806] ------- [REQUEST 47/47 0/0]
D 1.000055000 _13_ MAC  COL 0 ARP 86 [0 ffffffff 2f 806] ------- [REQUEST 47/47 0/0]
D 1.000055000 _11_ MAC  COL 0 ARP 86 [0 ffffffff 2f 806] ------- [REQUEST 47/47 0/0]
D 1.000055000 _10_ MAC  COL 0 ARP 86 [0 ffffffff 2f 806] ------- [REQUEST 47/47 0/0]
D 1.000055000 _9_ MAC  COL 0 ARP 86 [0 ffffffff 2f 806] ------- [REQUEST 47/47 0/0]
D 1.000055000 _8_ MAC  COL 0 ARP 86 [0 ffffffff 2f 806] ------- [REQUEST 47/47 0/0]
D 1.000055000 _7_ MAC  COL 0 ARP 86 [0 ffffffff 2f 806] ------- [REQUEST 47/47 0/0]
D 1.000055000 _6_ MAC  COL 0 ARP 86 [0 ffffffff 2f 806] ------- [REQUEST 47/47 0/0]
D 1.000055000 _5_ MAC  COL 0 ARP 86 [0 ffffffff 2f 806] ------- [REQUEST 47/47 0/0]
D 1.000055000 _4_ MAC  COL 0 ARP 86 [0 ffffffff 2f 806] ------- [REQUEST 47/47 0/0]
D 1.000055000 _3_ MAC  COL 0 ARP 86 [0 ffffffff 2f 806] ------- [REQUEST 47/47 0/0]
D 1.000055000 _48_ MAC  COL 0 ARP 86 [0 ffffffff 2f 806] ------- [REQUEST 47/47 0/0]
D 1.000055000 _49_ MAC  COL 0 ARP 86 [0 ffffffff 2f 806] ------- [REQUEST 47/47 0/0]
D 1.000055000 _50_ MAC  COL 0 ARP 86 [0 ffffffff 2f 806] ------- [REQUEST 47/47 0/0]
D 1.000055000 _52_ MAC  COL 0 ARP 86 [0 ffffffff 2f 806] ------- [REQUEST 47/47 0/0]
D 1.000055000 _53_ MAC  COL 0 ARP 86 [0 ffffffff 2f 806] ------- [REQUEST 47/47 0/0]
D 1.000055000 _54_ MAC  COL 0 ARP 86 [0 ffffffff 2f 806] ------- [REQUEST 47/47 0/0]
D 1.000055000 _55_ MAC  COL 0 ARP 86 [0 ffffffff 2f 806] ------- [REQUEST 47/47 0/0]
D 1.000055000 _56_ MAC  COL 0 ARP 86 [0 ffffffff 2f 806] ------- [REQUEST 47/47 0/0]
D 1.000055000 _57_ MAC  COL 0 ARP 86 [0 ffffffff 2f 806] ------- [REQUEST 47/47 0/0]
D 1.000055000 _58_ MAC  COL 0 ARP 86 [0 ffffffff 2f 806] ------- [REQUEST 47/47 0/0]
D 1.000055000 _59_ MAC  COL 0 ARP 86 [0 ffffffff 2f 806] ------- [REQUEST 47/47 0/0]
D 1.000055000 _60_ MAC  COL 0 ARP 86 [0 ffffffff 2f 806] ------- [REQUEST 47/47 0/0]
D 1.000055000 _61_ MAC  COL 0 ARP 86 [0 ffffffff 2f 806] ------- [REQUEST 47/47 0/0]
D 1.000055000 _62_ MAC  COL 0 ARP 86 [0 ffffffff 2f 806] ------- [REQUEST 47/47 0/0]
D 1.000055000 _64_ MAC  COL 0 ARP 86 [0 ffffffff 2f 806] ------- [REQUEST 47/47 0/0]
D 1.000055000 _65_ MAC  COL 0 ARP 86 [0 ffffffff 2f 806] ------- [REQUEST 47/47 0/0]
D 1.000055000 _66_ MAC  COL 0 ARP 86 [0 ffffffff 2f 806] ------- [REQUEST 47/47 0/0]
D 1.000055000 _67_ MAC  COL 0 ARP 86 [0 ffffffff 2f 806] ------- [REQUEST 47/47 0/0]
D 1.000055000 _68_ MAC  COL 0 ARP 86 [0 ffffffff 2f 806] ------- [REQUEST 47/47 0/0]
D 1.000055000 _69_ MAC  COL 0 ARP 86 [0 ffffffff 2f 806] ------- [REQUEST 47/47 0/0]
D 1.000055000 _70_ MAC  COL 0 ARP 86 [0 ffffffff 2f 806] ------- [REQUEST 47/47 0/0]
D 1.000055000 _71_ MAC  COL 0 ARP 86 [0 ffffffff 2f 806] ------- [REQUEST 47/47 0/0]
D 1.000055000 _72_ MAC  COL 0 ARP 86 [0 ffffffff 2f 806] ------- [REQUEST 47/47 0/0]
D 1.000055000 _73_ MAC  COL 0 ARP 86 [0 ffffffff 2f 806] ------- [REQUEST 47/47 0/0]
D 1.000055000 _74_ MAC  COL 0 ARP 86 [0 ffffffff 2f 806] ------- [REQUEST 47/47 0/0]
D 1.000055000 _76_ MAC  COL 0 ARP 86 [0 ffffffff 2f 806] ------- [REQUEST 47/47 0/0]
D 1.000055000 _77_ MAC  COL 0 ARP 86 [0 ffffffff 2f 806] ------- [REQUEST 47/47 0/0]
D 1.000055000 _78_ MAC  COL 0 ARP 86 [0 ffffffff 2f 806] ------- [REQUEST 47/47 0/0]
D 1.000055000 _79_ MAC  COL 0 ARP 86 [0 ffffffff 2f 806] ------- [REQUEST 47/47 0/0]
D 1.000055000 _80_ MAC  COL 0 ARP 86 [0 ffffffff 2f 806] ------- [REQUEST 47/47 0/0]
D 1.000055000 _81_ MAC  COL 0 ARP 86 [0 ffffffff 2f 806] ------- [REQUEST 47/47 0/0]
D 1.000055000 _82_ MAC  COL 0 ARP 86 [0 ffffffff 2f 806] ------- [REQUEST 47/47 0/0]
D 1.000055000 _83_ MAC  COL 0 ARP 86 [0 ffffffff 2f 806] ------- [REQUEST 47/47 0/0]
D 1.000055000 _84_ MAC  COL 0 ARP 86 [0 ffffffff 2f 806] ------- [REQUEST 47/47 0/0]
D 1.000055000 _86_ MAC  COL 0 ARP 86 [0 ffffffff 2f 806] ------- [REQUEST 47/47 0/0]
D 1.000055000 _87_ MAC  COL 0 ARP 86 [0 ffffffff 2f 806] ------- [REQUEST 47/47 0/0]
D 1.000055000 _88_ MAC  COL 0 ARP 86 [0 ffffffff 2f 806] ------- [REQUEST 47/47 0/0]
D 1.000055000 _89_ MAC  COL 0 ARP 86 [0 ffffffff 2f 806] ------- [REQUEST 47/47 0/0]
D 1.000055000 _90_ MAC  COL 0 ARP 86 [0 ffffffff 2f 806] ------- [REQUEST 47/47 0/0]
D 1.000055000 _91_ MAC  COL 0 ARP 86 [0 ffffffff 2f 806] ------- [REQUEST 47/47 0/0]
D 1.000055000 _92_ MAC  COL 0 ARP 86 [0 ffffffff 2f 806] ------- [REQUEST 47/47 0/0]
D 1.000055000 _93_ MAC  COL 0 ARP 86 [0 ffffffff 2f 806] ------- [REQUEST 47/47 0/0]
D 1.000055000 _94_ MAC  COL 0 ARP 86 [0 ffffffff 2f 806] ------- [REQUEST 47/47 0/0]
D 1.000055000 _95_ MAC  COL 0 ARP 86 [0 ffffffff 2f 806] ------- [REQUEST 47/47 0/0]
D 1.000055000 _96_ MAC  COL 0 ARP 86 [0 ffffffff 2f 806] ------- [REQUEST 47/47 0/0]
D 1.000055000 _97_ MAC  COL 0 ARP 86 [0 ffffffff 2f 806] ------- [REQUEST 47/47 0/0]
D 1.000055000 _98_ MAC  COL 0 ARP 86 [0 ffffffff 2f 806] ------- [REQUEST 47/47 0/0]
D 1.000055000 _99_ MAC  COL 0 ARP 86 [0 ffffffff 2f 806] ------- [REQUEST 47/47 0/0]
D 1.000055000 _50_ MAC  COL 0 ARP 86 [0 ffffffff 33 806] ------- [REQUEST 51/51 0/0]
D 1.000055000 _49_ MAC  COL 0 ARP 86 [0 ffffffff 33 806] ------- [REQUEST 51/51 0/0]
D 1.000055000 _48_ MAC  COL 0 ARP 86 [0 ffffffff 33 806] ------- [REQUEST 51/51 0/0]
D 1.000055000 _46_ MAC  COL 0 ARP 86 [0 ffffffff 33 806] ------- [REQUEST 51/51 0/0]
D 1.000055000 _45_ MAC  COL 0 ARP 86 [0 ffffffff 33 806] ------- [REQUEST 51/51 0/0]
D 1.000055000 _44_ MAC  COL 0 ARP 86 [0 ffffffff 33 806] ------- [REQUEST 51/51 0/0]
D 1.000055000 _43_ MAC  COL 0 ARP 86 [0 ffffffff 33 806] ------- [REQUEST 51/51 0/0]
D 1.000055000 _42_ MAC  COL 0 ARP 86 [0 ffffffff 33 806] ------- [REQUEST 51/51 0/0]
D 1.000055000 _41_ MAC  COL 0 ARP 86 [0 ffffffff 33 806] ------- [REQUEST 51/51 0/0]
D 1.000055000 _40_ MAC  COL 0 ARP 86 [0 ffffffff 33 806] ------- [REQUEST 51/51 0/0]
D 1.000055000 _39_ MAC  COL 0 ARP 86 [0 ffffffff 33 806] ------- [REQUEST 51/51 0/0]
D 1.000055000 _38_ MAC  COL 0 ARP 86 [0 ffffffff 33 806] ------- [REQUEST 51/51 0/0]
D 1.000055000 _37_ MAC  COL 0 ARP 86 [0 ffffffff 33 806] ------- [REQUEST 51/51 0/0]
D 1.000055000 _36_ MAC  COL 0 ARP 86 [0 ffffffff 33 806] ------- [REQUEST 51/51 0/0]
D 1.000055000 _34_ MAC  COL 0 ARP 86 [0 ffffffff 33 806] ------- [REQUEST 51/51 0/0]
D 1.000055000 _32_ MAC  COL 0 ARP 86 [0 ffffffff 33 806] ------- [REQUEST 51/51 0/0]
D 1.000055000 _31_ MAC  COL 0 ARP 86 [0 ffffffff 33 806] ------- [REQUEST 51/51 0/0]
D 1.000055000 _30_ MAC  COL 0 ARP 86 [0 ffffffff 33 806] ------- [REQUEST 51/51 0/0]
D 1.000055000 _29_ MAC  COL 0 ARP 86 [0 ffffffff 33 806] ------- [REQUEST 51/51 0/0]
D 1.000055000 _28_ MAC  COL 0 ARP 86 [0 ffffffff 33 806] ------- [REQUEST 51/51 0/0]
D 1.000055000 _27_ MAC  COL 0 ARP 86 [0 ffffffff 33 806] ------- [REQUEST 51/51 0/0]
D 1.000055000 _26_ MAC  COL 0 ARP 86 [0 ffffffff 33 806] ------- [REQUEST 51/51 0/0]
D 1.000055000 _25_ MAC  COL 0 ARP 86 [0 ffffffff 33 806] ------- [REQUEST 51/51 0/0]
D 1.000055000 _24_ MAC  COL 0 ARP 86 [0 ffffffff 33 806] ------- [REQUEST 51/51 0/0]
D 1.000055000 _23_ MAC  COL 0 ARP 86 [0 ffffffff 33 806] ------- [REQUEST 51/51 0/0]
D 1.000055000 _22_ MAC  COL 0 ARP 86 [0 ffffffff 33 806] ------- [REQUEST 51/51 0/0]
D 1.000055000 _21_ MAC  COL 0 ARP 86 [0 ffffffff 33 806] ------- [REQUEST 51/51 0/0]
D 1.000055000 _20_ MAC  COL 0 ARP 86 [0 ffffffff 33 806] ------- [REQUEST 51/51 0/0]
D 1.000055000 _19_ MAC  COL 0 ARP 86 [0 ffffffff 33 806] ------- [REQUEST 51/51 0/0]
D 1.000055000 _18_ MAC  COL 0 ARP 86 [0 ffffffff 33 806] ------- [REQUEST 51/51 0/0]
D 1.000055000 _17_ MAC  COL 0 ARP 86 [0 ffffffff 33 806] ------- [REQUEST 51/51 0/0]
D 1.000055000 _16_ MAC  COL 0 ARP 86 [0 ffffffff 33 806] ------- [REQUEST 51/51 0/0]
D 1.000055000 _15_ MAC  COL 0 ARP 86 [0 ffffffff 33 806] ------- [REQUEST 51/51 0/0]
D 1.000055000 _14_ MAC  COL 0 ARP 86 [0 ffffffff 33 806] ------- [REQUEST 51/51 0/0]
D 1.000055000 _13_ MAC  COL 0 ARP 86 [0 ffffffff 33 806] ------- [REQUEST 51/51 0/0]
D 1.000055000 _11_ MAC  COL 0 ARP 86 [0 ffffffff 33 806] ------- [REQUEST 51/51 0/0]
D 1.000055000 _10_ MAC  COL 0 ARP 86 [0 ffffffff 33 806] ------- [REQUEST 51/51 0/0]
D 1.000055000 _9_ MAC  COL 0 ARP 86 [0 ffffffff 33 806] ------- [REQUEST 51/51 0/0]
D 1.000055000 _8_ MAC  COL 0 ARP 86 [0 ffffffff 33 806] ------- [REQUEST 51/51 0/0]
D 1.000055000 _7_ MAC  COL 0 ARP 86 [0 ffffffff 33 806] ------- [REQUEST 51/51 0/0]
D 1.000055000 _6_ MAC  COL 0 ARP 86 [0 ffffffff 33 806] ------- [REQUEST 51/51 0/0]
D 1.000055000 _5_ MAC  COL 0 ARP 86 [0 ffffffff 33 806] ------- [REQUEST 51/51 0/0]
D 1.000055000 _4_ MAC  COL 0 ARP 86 [0 ffffffff 33 806] ------- [REQUEST 51/51 0/0]
D 1.000055000 _3_ MAC  COL 0 ARP 86 [0 ffffffff 33 806] ------- [REQUEST 51/51 0/0]
D 1.000055000 _52_ MAC  COL 0 ARP 86 [0 ffffffff 33 806] ------- [REQUEST 51/51 0/0]
D 1.000055000 _53_ MAC  COL 0 ARP 86 [0 ffffffff 33 806] ------- [REQUEST 51/51 0/0]
D 1.000055000 _54_ MAC  COL 0 ARP 86 [0 ffffffff 33 806] ------- [REQUEST 51/51 0/0]
D 1.000055000 _55_ MAC  COL 0 ARP 86 [0 ffffffff 33 806] ------- [REQUEST 51/51 0/0]
D 1.000055000 _56_ MAC  COL 0 ARP 86 [0 ffffffff 33 806] ------- [REQUEST 51/51 0/0]
D 1.000055000 _57_ MAC  COL 0 ARP 86 [0 ffffffff 33 806] ------- [REQUEST 51/51 0/0]
D 1.000055000 _58_ MAC  COL 0 ARP 86 [0 ffffffff 33 806] ------- [REQUEST 51/51 0/0]
D 1.000055000 _59_ MAC  COL 0 ARP 86 [0 ffffffff 33 806] ------- [REQUEST 51/51 0/0]
D 1.000055000 _60_ MAC  COL 0 ARP 86 [0 ffffffff 33 806] ------- [REQUEST 51/51 0/0]
D 1.000055000 _61_ MAC  COL 0 ARP 86 [0 ffffffff 33 806] ------- [REQUEST 51/51 0/0]
D 1.000055000 _62_ MAC  COL 0 ARP 86 [0 ffffffff 33 806] ------- [REQUEST 51/51 0/0]
D 1.000055000 _64_ MAC  COL 0 ARP 86 [0 ffffffff 33 806] ------- [REQUEST 51/51 0/0]
D 1.000055000 _65_ MAC  COL 0 ARP 86 [0 ffffffff 33 806] ------- [REQUEST 51/51 0/0]
D 1.000055000 _66_ MAC  COL 0 ARP 86 [0 ffffffff 33 806] ------- [REQUEST 51/51 0/0]
D 1.000055000 _67_ MAC  COL 0 ARP 86 [0 ffffffff 33 806] ------- [REQUEST 51/51 0/0]
D 1.000055000 _68_ MAC  COL 0 ARP 86 [0 ffffffff 33 806] ------- [REQUEST 51/51 0/0]
D 1.000055000 _69_ MAC  COL 0 ARP 86 [0 ffffffff 33 806] ------- [REQUEST 51/51 0/0]
D 1.000055000 _70_ MAC  COL 0 ARP 86 [0 ffffffff 33 806] ------- [REQUEST 51/51 0/0]
D 1.000055000 _71_ MAC  COL 0 ARP 86 [0 ffffffff 33 806] ------- [REQUEST 51/51 0/0]
D 1.000055000 _72_ MAC  COL 0 ARP 86 [0 ffffffff 33 806] ------- [REQUEST 51/51 0/0]
D 1.000055000 _73_ MAC  COL 0 ARP 86 [0 ffffffff 33 806] ------- [REQUEST 51/51 0/0]
D 1.000055000 _74_ MAC  COL 0 ARP 86 [0 ffffffff 33 806] ------- [REQUEST 51/51 0/0]
D 1.000055000 _76_ MAC  COL 0 ARP 86 [0 ffffffff 33 806] ------- [REQUEST 51/51 0/0]
D 1.000055000 _77_ MAC  COL 0 ARP 86 [0 ffffffff 33 806] ------- [REQUEST 51/51 0/0]
D 1.000055000 _78_ MAC  COL 0 ARP 86 [0 ffffffff 33 806] ------- [REQUEST 51/51 0/0]
D 1.000055000 _79_ MAC  COL 0 ARP 86 [0 ffffffff 33 806] ------- [REQUEST 51/51 0/0]
D 1.000055000 _80_ MAC  COL 0 ARP 86 [0 ffffffff 33 806] ------- [REQUEST 51/51 0/0]
D 1.000055000 _81_ MAC  COL 0 ARP 86 [0 ffffffff 33 806] ------- [REQUEST 51/51 0/0]
D 1.000055000 _82_ MAC  COL 0 ARP 86 [0 ffffffff 33 806] ------- [REQUEST 51/51 0/0]
D 1.000055000 _83_ MAC  COL 0 ARP 86 [0 ffffffff 33 806] ------- [REQUEST 51/51 0/0]
D 1.000055000 _84_ MAC  COL 0 ARP 86 [0 ffffffff 33 806] ------- [REQUEST 51/51 0/0]