Sconfig 0.00000 tap: on snoop: rts? on errs? on
Sconfig 0.00000 salvage: on !bd replies? on
Sconfig 0.00000 grat error: on grat reply: on
Sconfig 0.00000 $reply for props: on ring 0 search: on
Sconfig 0.00000 using MOBICACHE
M 10.00000 0 (514.36, 284.34, 0.00), (296.70, 911.80), 0.01
M 10.00000 1 (643.66, 149.92, 0.00), (332.51, 13.94), 0.82
M 10.00000 2 (725.97, 148.70, 0.00), (410.03, 227.82), 0.35
M 10.00000 3 (665.33, 725.17, 0.00), (664.56, 587.74), 0.31
M 10.00000 4 (682.88, 101.17, 0.00), (228.96, 346.94), 0.28
M 10.00000 5 (366.60, 469.97, 0.00), (613.92, 774.60), 0.35
M 10.00000 6 (835.60, 721.86, 0.00), (328.45, 734.38), 0.12
M 10.00000 7 (937.16, 560.16, 0.00), (87.78, 627.89), 0.78
M 10.00000 8 (2.25, 360.67, 0.00), (164.88, 626.71), 0.42
M 10.00000 9 (456.68, 486.65, 0.00), (833.66, 878.62), 0.75
s 25.561746129 _1_ AGT  --- 0 cbr 512 [0 0 0 0] ------- [1:0 2:0 32 0] [0] 0 1
r 25.561746129 _1_ RTR  --- 0 cbr 512 [0 0 0 0] ------- [1:0 2:0 32 0] [0] 0 1
s 25.562499472 _1_ RTR  --- 1 DSR 32 [0 0 0 0] ------- [1:255 2:255 32 0] 1 [1 1] [0 1 0 0->0] [0 0 0 0->0]
s 25.563134472 _1_ MAC  --- 1 DSR 90 [0 ffffffff 1 800] ------- [1:255 2:255 32 0] 1 [1 1] [0 1 0 0->0] [0 0 0 0->0]
r 25.563854681 _4_ MAC  --- 1 DSR 32 [0 ffffffff 1 800] ------- [1:255 2:255 32 0] 1 [1 1] [0 1 0 0->0] [0 0 0 0->0]
r 25.563854768 _2_ MAC  --- 1 DSR 32 [0 ffffffff 1 800] ------- [1:255 2:255 32 0] 1 [1 1] [0 1 0 0->0] [0 0 0 0->0]
r 25.563855081 _0_ MAC  --- 1 DSR 32 [0 ffffffff 1 800] ------- [1:255 2:255 32 0] 1 [1 1] [0 1 0 0->0] [0 0 0 0->0]
r 25.563879681 _4_ RTR  --- 1 DSR 32 [0 ffffffff 1 800] ------- [1:255 2:255 32 0] 1 [1 1] [0 1 0 0->0] [0 0 0 0->0]
r 25.563879768 _2_ RTR  --- 1 DSR 32 [0 ffffffff 1 800] ------- [1:255 2:255 32 0] 1 [1 1] [0 1 0 0->0] [0 0 0 0->0]
r 25.563880081 _0_ RTR  --- 1 DSR 32 [0 ffffffff 1 800] ------- [1:255 2:255 32 0] 1 [1 1] [0 1 0 0->0] [0 0 0 0->0]
s 25.564334261 _2_ RTR  --- 2 DSR 44 [0 0 0 0] ------- [2:255 1:255 254 1] 2 [0 1] [1 1 2 1->2] [0 0 0 0->0]
s 25.564749261 _2_ MAC  --- 0 ARP 86 [0 ffffffff 2 806] ------- [REQUEST 2/2 0/1]
r 25.565437470 _4_ MAC  --- 0 ARP 28 [0 ffffffff 2 806] ------- [REQUEST 2/2 0/1]
r 25.565437558 _1_ MAC  --- 0 ARP 28 [0 ffffffff 2 806] ------- [REQUEST 2/2 0/1]
r 25.565438083 _0_ MAC  --- 0 ARP 28 [0 ffffffff 2 806] ------- [REQUEST 2/2 0/1]
s 25.565852558 _1_ MAC  --- 0 RTS 44 [52e 2 1 0] 
r 25.566204854 _2_ MAC  --- 0 RTS 44 [52e 2 1 0] 
s 25.566214854 _2_ MAC  --- 0 CTS 38 [3f4 1 0 0] 
r 25.566519150 _1_ MAC  --- 0 CTS 38 [3f4 1 0 0] 
s 25.566529150 _1_ MAC  --- 0 ARP 86 [13a 2 1 806] ------- [REPLY 1/1 2/2]
r 25.567217446 _2_ MAC  --- 0 ARP 28 [13a 2 1 806] ------- [REPLY 1/1 2/2]
s 25.567227446 _2_ MAC  --- 0 ACK 38 [0 1 0 0] 
r 25.567531742 _1_ MAC  --- 0 ACK 38 [0 1 0 0] 
s 25.567681446 _2_ MAC  --- 0 RTS 44 [5ae 1 2 0] 
r 25.568033742 _1_ MAC  --- 0 RTS 44 [5ae 1 2 0] 
s 25.568043742 _1_ MAC  --- 0 CTS 38 [474 2 0 0] 
r 25.568348039 _2_ MAC  --- 0 CTS 38 [474 2 0 0] 
s 25.568358039 _2_ MAC  --- 2 DSR 102 [13a 1 2 800] ------- [2:255 1:255 254 1] 2 [0 1] [1 1 2 1->2] [0 0 0 0->0]
r 25.569174335 _1_ MAC  --- 2 DSR 44 [13a 1 2 800] ------- [2:255 1:255 254 1] 2 [0 1] [1 1 2 1->2] [0 0 0 0->0]
s 25.569184335 _1_ MAC  --- 0 ACK 38 [0 2 0 0] 
r 25.569199335 _1_ RTR  --- 2 DSR 44 [13a 1 2 800] ------- [2:255 1:255 254 1] 2 [0 1] [1 1 2 1->2] [0 0 0 0->0]
SFESTs 25.569199335 _1_ 0 [1 -> 2] 1(1) to 2 [1 |2 ]
s 25.569199335 _1_ RTR  --- 0 cbr 548 [0 0 0 0] ------- [1:0 2:0 32 2] [0] 0 1
r 25.569488631 _2_ MAC  --- 0 ACK 38 [0 2 0 0] 
s 25.569958335 _1_ MAC  --- 0 RTS 44 [156e 2 1 0] 
r 25.570310631 _2_ MAC  --- 0 RTS 44 [156e 2 1 0] 
s 25.570320631 _2_ MAC  --- 0 CTS 38 [1434 1 0 0] 
r 25.570624927 _1_ MAC  --- 0 CTS 38 [1434 1 0 0] 
s 25.570634927 _1_ MAC  --- 0 cbr 606 [13a 2 1 800] ------- [1:0 2:0 32 2] [0] 0 1
r 25.575483223 _2_ MAC  --- 0 cbr 548 [13a 2 1 800] ------- [1:0 2:0 32 2] [0] 1 1
s 25.575493223 _2_ MAC  --- 0 ACK 38 [0 1 0 0] 
r 25.575508223 _2_ RTR  --- 0 cbr 548 [13a 2 1 800] ------- [1:0 2:0 32 2] [0] 1 1
r 25.575508223 _2_ AGT  --- 0 cbr 512 [13a 2 1 800] ------- [1:0 2:0 32 2] [0] 1 1
r 25.575797520 _1_ MAC  --- 0 ACK 38 [0 1 0 0] 
s 25.710340606 _1_ AGT  --- 3 cbr 512 [0 0 0 0] ------- [1:0 2:0 32 0] [1] 0 1
r 25.710340606 _1_ RTR  --- 3 cbr 512 [0 0 0 0] ------- [1:0 2:0 32 0] [1] 0 1
SFESTs 25.710340606 _1_ 3 [1 -> 2] 1(1) to 2 [1 |2 ]
s 25.710340606 _1_ RTR  --- 3 cbr 548 [0 0 0 0] ------- [1:0 2:0 32 2] [1] 0 1
s 25.710595606 _1_ MAC  --- 0 RTS 44 [156e 2 1 0] 
r 25.710947902 _2_ MAC  --- 0 RTS 44 [156e 2 1 0] 
s 25.710957902 _2_ MAC  --- 0 CTS 38 [1434 1 0 0] 
r 25.711262199 _1_ MAC  --- 0 CTS 38 [1434 1 0 0] 
s 25.711272199 _1_ MAC  --- 3 cbr 606 [13a 2 1 800] ------- [1:0 2:0 32 2] [1] 0 1
r 25.716120495 _2_ MAC  --- 3 cbr 548 [13a 2 1 800] ------- [1:0 2:0 32 2] [1] 1 1
s 25.716130495 _2_ MAC  --- 0 ACK 38 [0 1 0 0] 
r 25.716145495 _2_ RTR  --- 3 cbr 548 [13a 2 1 800] ------- [1:0 2:0 32 2] [1] 1 1
r 25.716145495 _2_ AGT  --- 3 cbr 512 [13a 2 1 800] ------- [1:0 2:0 32 2] [1] 1 1
r 25.716434792 _1_ MAC  --- 0 ACK 38 [0 1 0 0] 
s 26.052074560 _1_ AGT  --- 4 cbr 512 [0 0 0 0] ------- [1:0 2:0 32 0] [2] 0 1
r 26.052074560 _1_ RTR  --- 4 cbr 512 [0 0 0 0] ------- [1:0 2:0 32 0] [2] 0 1
SFESTs 26.052074560 _1_ 4 [1 -> 2] 1(1) to 2 [1 |2 ]
s 26.052074560 _1_ RTR  --- 4 cbr 548 [0 0 0 0] ------- [1:0 2:0 32 2] [2] 0 1
s 26.052469560 _1_ MAC  --- 0 RTS 44 [156e 2 1 0] 
r 26.052821857 _2_ MAC  --- 0 RTS 44 [156e 2 1 0] 
s 26.052831857 _2_ MAC  --- 0 CTS 38 [1434 1 0 0] 
r 26.053136154 _1_ MAC  --- 0 CTS 38 [1434 1 0 0] 
s 26.053146154 _1_ MAC  --- 4 cbr 606 [13a 2 1 800] ------- [1:0 2:0 32 2] [2] 0 1
r 26.057994451 _2_ MAC  --- 4 cbr 548 [13a 2 1 800] ------- [1:0 2:0 32 2] [2] 1 1
s 26.058004451 _2_ MAC  --- 0 ACK 38 [0 1 0 0] 
r 26.058019451 _2_ RTR  --- 4 cbr 548 [13a 2 1 800] ------- [1:0 2:0 32 2] [2] 1 1
r 26.058019451 _2_ AGT  --- 4 cbr 512 [13a 2 1 800] ------- [1:0 2:0 32 2] [2] 1 1
r 26.058308748 _1_ MAC  --- 0 ACK 38 [0 1 0 0] 
s 26.380540916 _1_ AGT  --- 5 cbr 512 [0 0 0 0] ------- [1:0 2:0 32 0] [3] 0 1
r 26.380540916 _1_ RTR  --- 5 cbr 512 [0 0 0 0] ------- [1:0 2:0 32 0] [3] 0 1
SFs 26.380540916 _1_ 5 [1 -> 2] 1(0) to 2 
s 26.380540916 _1_ RTR  --- 5 cbr 532 [0 0 0 0] ------- [1:0 2:0 32 2] [3] 0 1
s 26.380695916 _1_ MAC  --- 0 RTS 44 [14ee 2 1 0] 
r 26.381048213 _2_ MAC  --- 0 RTS 44 [14ee 2 1 0] 
s 26.381058213 _2_ MAC  --- 0 CTS 38 [13b4 1 0 0] 
r 26.381362511 _1_ MAC  --- 0 CTS 38 [13b4 1 0 0] 
s 26.381372511 _1_ MAC  --- 5 cbr 590 [13a 2 1 800] ------- [1:0 2:0 32 2] [3] 0 1
r 26.386092808 _2_ MAC  --- 5 cbr 532 [13a 2 1 800] ------- [1:0 2:0 32 2] [3] 1 1
s 26.386102808 _2_ MAC  --- 0 ACK 38 [0 1 0 0] 
r 26.386117808 _2_ RTR  --- 5 cbr 532 [13a 2 1 800] ------- [1:0 2:0 32 2] [3] 1 1
r 26.386117808 _2_ AGT  --- 5 cbr 512 [13a 2 1 800] ------- [1:0 2:0 32 2] [3] 1 1
r 26.386407106 _1_ MAC  --- 0 ACK 38 [0 1 0 0] 
s 26.566809209 _1_ AGT  --- 6 cbr 512 [0 0 0 0] ------- [1:0 2:0 32 0] [4] 0 1
r 26.566809209 _1_ RTR  --- 6 cbr 512 [0 0 0 0] ------- [1:0 2:0 32 0] [4] 0 1
SFs 26.566809209 _1_ 6 [1 -> 2] 1(0) to 2 
s 26.566809209 _1_ RTR  --- 6 cbr 532 [0 0 0 0] ------- [1:0 2:0 32 2] [4] 0 1
s 26.567304209 _1_ MAC  --- 0 RTS 44 [14ee 2 1 0] 
r 26.567656507 _2_ MAC  --- 0 RTS 44 [14ee 2 1 0] 
s 26.567666507 _2_ MAC  --- 0 CTS 38 [13b4 1 0 0] 
r 26.567970805 _1_ MAC  --- 0 CTS 38 [13b4 1 0 0] 
s 26.567980805 _1_ MAC  --- 6 cbr 590 [13a 2 1 800] ------- [1:0 2:0 32 2] [4] 0 1
r 26.572701102 _2_ MAC  --- 6 cbr 532 [13a 2 1 800] ------- [1:0 2:0 32 2] [4] 1 1
s 26.572711102 _2_ MAC  --- 0 ACK 38 [0 1 0 0] 
r 26.572726102 _2_ RTR  --- 6 cbr 532 [13a 2 1 800] ------- [1:0 2:0 32 2] [4] 1 1
r 26.572726102 _2_ AGT  --- 6 cbr 512 [13a 2 1 800] ------- [1:0 2:0 32 2] [4] 1 1
r 26.573015400 _1_ MAC  --- 0 ACK 38 [0 1 0 0] 
s 26.854615063 _1_ AGT  --- 7 cbr 512 [0 0 0 0] ------- [1:0 2:0 32 0] [5] 0 1
r 26.854615063 _1_ RTR  --- 7 cbr 512 [0 0 0 0] ------- [1:0 2:0 32 0] [5] 0 1
SFs 26.854615063 _1_ 7 [1 -> 2] 1(0) to 2 
s 26.854615063 _1_ RTR  --- 7 cbr 532 [0 0 0 0] ------- [1:0 2:0 32 2] [5] 0 1
s 26.855130063 _1_ MAC  --- 0 RTS 44 [14ee 2 1 0] 
r 26.855482361 _2_ MAC  --- 0 RTS 44 [14ee 2 1 0] 
s 26.855492361 _2_ MAC  --- 0 CTS 38 [13b4 1 0 0] 
r 26.855796659 _1_ MAC  --- 0 CTS 38 [13b4 1 0 0] 
s 26.855806659 _1_ MAC  --- 7 cbr 590 [13a 2 1 800] ------- [1:0 2:0 32 2] [5] 0 1
r 26.860526958 _2_ MAC  --- 7 cbr 532 [13a 2 1 800] ------- [1:0 2:0 32 2] [5] 1 1
s 26.860536958 _2_ MAC  --- 0 ACK 38 [0 1 0 0] 
r 26.860551958 _2_ RTR  --- 7 cbr 532 [13a 2 1 800] ------- [1:0 2:0 32 2] [5] 1 1
r 26.860551958 _2_ AGT  --- 7 cbr 512 [13a 2 1 800] ------- [1:0 2:0 32 2] [5] 1 1
r 26.860841256 _1_ MAC  --- 0 ACK 38 [0 1 0 0] 
s 27.104433842 _1_ AGT  --- 8 cbr 512 [0 0 0 0] ------- [1:0 2:0 32 0] [6] 0 1
r 27.104433842 _1_ RTR  --- 8 cbr 512 [0 0 0 0] ------- [1:0 2:0 32 0] [6] 0 1
SFs 27.104433842 _1_ 8 [1 -> 2] 1(0) to 2 
s 27.104433842 _1_ RTR  --- 8 cbr 532 [0 0 0 0] ------- [1:0 2:0 32 2] [6] 0 1
s 27.104868842 _1_ MAC  --- 0 RTS 44 [14ee 2 1 0] 
r 27.105221141 _2_ MAC  --- 0 RTS 44 [14ee 2 1 0] 
s 27.105231141 _2_ MAC  --- 0 CTS 38 [13b4 1 0 0] 
r 27.105535439 _1_ MAC  --- 0 CTS 38 [13b4 1 0 0] 
s 27.105545439 _1_ MAC  --- 8 cbr 590 [13a 2 1 800] ------- [1:0 2:0 32 2] [6] 0 1
r 27.110265737 _2_ MAC  --- 8 cbr 532 [13a 2 1 800] ------- [1:0 2:0 32 2] [6] 1 1
s 27.110275737 _2_ MAC  --- 0 ACK 38 [0 1 0 0] 
r 27.110290737 _2_ RTR  --- 8 cbr 532 [13a 2 1 800] ------- [1:0 2:0 32 2] [6] 1 1
r 27.110290737 _2_ AGT  --- 8 cbr 512 [13a 2 1 800] ------- [1:0 2:0 32 2] [6] 1 1
r 27.110580036 _1_ MAC  --- 0 ACK 38 [0 1 0 0] 
s 27.330329101 _1_ AGT  --- 9 cbr 512 [0 0 0 0] ------- [1:0 2:0 32 0] [7] 0 1
r 27.330329101 _1_ RTR  --- 9 cbr 512 [0 0 0 0] ------- [1:0 2:0 32 0] [7] 0 1
SFs 27.330329101 _1_ 9 [1 -> 2] 1(0) to 2 
s 27.330329101 _1_ RTR  --- 9 cbr 532 [0 0 0 0] ------- [1:0 2:0 32 2] [7] 0 1
s 27.330644101 _1_ MAC  --- 0 RTS 44 [14ee 2 1 0] 
r 27.330996400 _2_ MAC  --- 0 RTS 44 [14ee 2 1 0] 
s 27.331006400 _2_ MAC  --- 0 CTS 38 [13b4 1 0 0] 
r 27.331310699 _1_ MAC  --- 0 CTS 38 [13b4 1 0 0] 
s 27.331320699 _1_ MAC  --- 9 cbr 590 [13a 2 1 800] ------- [1:0 2:0 32 2] [7] 0 1
r 27.336040998 _2_ MAC  --- 9 cbr 532 [13a 2 1 800] ------- [1:0 2:0 32 2] [7] 1 1
s 27.336050998 _2_ MAC  --- 0 ACK 38 [0 1 0 0] 
r 27.336065998 _2_ RTR  --- 9 cbr 532 [13a 2 1 800] ------- [1:0 2:0 32 2] [7] 1 1
r 27.336065998 _2_ AGT  --- 9 cbr 512 [13a 2 1 800] ------- [1:0 2:0 32 2] [7] 1 1
r 27.336355297 _1_ MAC  --- 0 ACK 38 [0 1 0 0] 
s 27.565905292 _1_ AGT  --- 10 cbr 512 [0 0 0 0] ------- [1:0 2:0 32 0] [8] 0 1
r 27.565905292 _1_ RTR  --- 10 cbr 512 [0 0 0 0] ------- [1:0 2:0 32 0] [8] 0 1
SFs 27.565905292 _1_ 10 [1 -> 2] 1(0) to 2 
s 27.565905292 _1_ RTR  --- 10 cbr 532 [0 0 0 0] ------- [1:0 2:0 32 2] [8] 0 1
s 27.566560292 _1_ MAC  --- 0 RTS 44 [14ee 2 1 0] 
r 27.566912591 _2_ MAC  --- 0 RTS 44 [14ee 2 1 0] 
s 27.566922591 _2_ MAC  --- 0 CTS 38 [13b4 1 0 0] 
r 27.567226890 _1_ MAC  --- 0 CTS 38 [13b4 1 0 0] 
s 27.567236890 _1_ MAC  --- 10 cbr 590 [13a 2 1 800] ------- [1:0 2:0 32 2] [8] 0 1
r 27.571957189 _2_ MAC  --- 10 cbr 532 [13a 2 1 800] ------- [1:0 2:0 32 2] [8] 1 1
s 27.571967189 _2_ MAC  --- 0 ACK 38 [0 1 0 0] 
r 27.571982189 _2_ RTR  --- 10 cbr 532 [13a 2 1 800] ------- [1:0 2:0 32 2] [8] 1 1
r 27.571982189 _2_ AGT  --- 10 cbr 512 [13a 2 1 800] ------- [1:0 2:0 32 2] [8] 1 1
r 27.572271488 _1_ MAC  --- 0 ACK 38 [0 1 0 0] 
s 27.710278297 _1_ AGT  --- 11 cbr 512 [0 0 0 0] ------- [1:0 2:0 32 0] [9] 0 1
r 27.710278297 _1_ RTR  --- 11 cbr 512 [0 0 0 0] ------- [1:0 2:0 32 0] [9] 0 1
SFs 27.710278297 _1_ 11 [1 -> 2] 1(0) to 2 
s 27.710278297 _1_ RTR  --- 11 cbr 532 [0 0 0 0] ------- [1:0 2:0 32 2] [9] 0 1
s 27.710733297 _1_ MAC  --- 0 RTS 44 [14ee 2 1 0] 
r 27.711085596 _2_ MAC  --- 0 RTS 44 [14ee 2 1 0] 
s 27.711095596 _2_ MAC  --- 0 CTS 38 [13b4 1 0 0] 
r 27.711399896 _1_ MAC  --- 0 CTS 38 [13b4 1 0 0] 
s 27.711409896 _1_ MAC  --- 11 cbr 590 [13a 2 1 800] ------- [1:0 2:0 32 2] [9] 0 1
r 27.716130195 _2_ MAC  --- 11 cbr 532 [13a 2 1 800] ------- [1:0 2:0 32 2] [9] 1 1
s 27.716140195 _2_ MAC  --- 0 ACK 38 [0 1 0 0] 
r 27.716155195 _2_ RTR  --- 11 cbr 532 [13a 2 1 800] ------- [1:0 2:0 32 2] [9] 1 1
r 27.716155195 _2_ AGT  --- 11 cbr 512 [13a 2 1 800] ------- [1:0 2:0 32 2] [9] 1 1
r 27.716444494 _1_ MAC  --- 0 ACK 38 [0 1 0 0] 
s 27.963221993 _1_ AGT  --- 12 cbr 512 [0 0 0 0] ------- [1:0 2:0 32 0] [10] 0 1
r 27.963221993 _1_ RTR  --- 12 cbr 512 [0 0 0 0] ------- [1:0 2:0 32 0] [10] 0 1
SFs 27.963221993 _1_ 12 [1 -> 2] 1(0) to 2 
s 27.963221993 _1_ RTR  --- 12 cbr 532 [0 0 0 0] ------- [1:0 2:0 32 2] [10] 0 1
s 27.963796993 _1_ MAC  --- 0 RTS 44 [14ee 2 1 0] 
r 27.964149293 _2_ MAC  --- 0 RTS 44 [14ee 2 1 0] 
s 27.964159293 _2_ MAC  --- 0 CTS 38 [13b4 1 0 0] 
r 27.964463592 _1_ MAC  --- 0 CTS 38 [13b4 1 0 0] 
s 27.964473592 _1_ MAC  --- 12 cbr 590 [13a 2 1 800] ------- [1:0 2:0 32 2] [10] 0 1
r 27.969193892 _2_ MAC  --- 12 cbr 532 [13a 2 1 800] ------- [1:0 2:0 32 2] [10] 1 1
s 27.969203892 _2_ MAC  --- 0 ACK 38 [0 1 0 0] 
r 27.969218892 _2_ RTR  --- 12 cbr 532 [13a 2 1 800] ------- [1:0 2:0 32 2] [10] 1 1
r 27.969218892 _2_ AGT  --- 12 cbr 512 [13a 2 1 800] ------- [1:0 2:0 32 2] [10] 1 1
r 27.969508192 _1_ MAC  --- 0 ACK 38 [0 1 0 0] 
s 28.249094219 _1_ AGT  --- 13 cbr 512 [0 0 0 0] ------- [1:0 2:0 32 0] [11] 0 1
r 28.249094219 _1_ RTR  --- 13 cbr 512 [0 0 0 0] ------- [1:0 2:0 32 0] [11] 0 1
SFs 28.249094219 _1_ 13 [1 -> 2] 1(0) to 2 
s 28.249094219 _1_ RTR  --- 13 cbr 532 [0 0 0 0] ------- [1:0 2:0 32 2] [11] 0 1
s 28.249449219 _1_ MAC  --- 0 RTS 44 [14ee 2 1 0] 
r 28.249801519 _2_ MAC  --- 0 RTS 44 [14ee 2 1 0] 
s 28.249811519 _2_ MAC  --- 0 CTS 38 [13b4 1 0 0] 
r 28.250115819 _1_ MAC  --- 0 CTS 38 [13b4 1 0 0] 
s 28.250125819 _1_ MAC  --- 13 cbr 590 [13a 2 1 800] ------- [1:0 2:0 32 2] [11] 0 1
r 28.254846119 _2_ MAC  --- 13 cbr 532 [13a 2 1 800] ------- [1:0 2:0 32 2] [11] 1 1
s 28.254856119 _2_ MAC  --- 0 ACK 38 [0 1 0 0] 
r 28.254871119 _2_ RTR  --- 13 cbr 532 [13a 2 1 800] ------- [1:0 2:0 32 2] [11] 1 1
r 28.254871119 _2_ AGT  --- 13 cbr 512 [13a 2 1 800] ------- [1:0 2:0 32 2] [11] 1 1
r 28.255160419 _1_ MAC  --- 0 ACK 38 [0 1 0 0] 
s 28.383274471 _1_ AGT  --- 14 cbr 512 [0 0 0 0] ------- [1:0 2:0 32 0] [12] 0 1
r 28.383274471 _1_ RTR  --- 14 cbr 512 [0 0 0 0] ------- [1:0 2:0 32 0] [12] 0 1
SFs 28.383274471 _1_ 14 [1 -> 2] 1(0) to 2 
s 28.383274471 _1_ RTR  --- 14 cbr 532 [0 0 0 0] ------- [1:0 2:0 32 2] [12] 0 1
s 28.383929471 _1_ MAC  --- 0 RTS 44 [14ee 2 1 0] 
r 28.384281771 _2_ MAC  --- 0 RTS 44 [14ee 2 1 0] 
s 28.384291771 _2_ MAC  --- 0 CTS 38 [13b4 1 0 0] 
r 28.384596071 _1_ MAC  --- 0 CTS 38 [13b4 1 0 0] 
s 28.384606071 _1_ MAC  --- 14 cbr 590 [13a 2 1 800] ------- [1:0 2:0 32 2] [12] 0 1
r 28.389326372 _2_ MAC  --- 14 cbr 532 [13a 2 1 800] ------- [1:0 2:0 32 2] [12] 1 1
s 28.389336372 _2_ MAC  --- 0 ACK 38 [0 1 0 0] 
r 28.389351372 _2_ RTR  --- 14 cbr 532 [13a 2 1 800] ------- [1:0 2:0 32 2] [12] 1 1
r 28.389351372 _2_ AGT  --- 14 cbr 512 [13a 2 1 800] ------- [1:0 2:0 32 2] [12] 1 1
r 28.389640672 _1_ MAC  --- 0 ACK 38 [0 1 0 0] 
s 28.552442201 _1_ AGT  --- 15 cbr 512 [0 0 0 0] ------- [1:0 2:0 32 0] [13] 0 1
r 28.552442201 _1_ RTR  --- 15 cbr 512 [0 0 0 0] ------- [1:0 2:0 32 0] [13] 0 1
SFs 28.552442201 _1_ 15 [1 -> 2] 1(0) to 2 
s 28.552442201 _1_ RTR  --- 15 cbr 532 [0 0 0 0] ------- [1:0 2:0 32 2] [13] 0 1
s 28.552677201 _1_ MAC  --- 0 RTS 44 [14ee 2 1 0] 
r 28.553029501 _2_ MAC  --- 0 RTS 44 [14ee 2 1 0] 
s 28.553039501 _2_ MAC  --- 0 CTS 38 [13b4 1 0 0] 
r 28.553343802 _1_ MAC  --- 0 CTS 38 [13b4 1 0 0] 
s 28.553353802 _1_ MAC  --- 15 cbr 590 [13a 2 1 800] ------- [1:0 2:0 32 2] [13] 0 1
r 28.558074103 _2_ MAC  --- 15 cbr 532 [13a 2 1 800] ------- [1:0 2:0 32 2] [13] 1 1
s 28.558084103 _2_ MAC  --- 0 ACK 38 [0 1 0 0] 
r 28.558099103 _2_ RTR  --- 15 cbr 532 [13a 2 1 800] ------- [1:0 2:0 32 2] [13] 1 1
r 28.558099103 _2_ AGT  --- 15 cbr 512 [13a 2 1 800] ------- [1:0 2:0 32 2] [13] 1 1
r 28.558388403 _1_ MAC  --- 0 ACK 38 [0 1 0 0] 
s 28.900035318 _1_ AGT  --- 16 cbr 512 [0 0 0 0] ------- [1:0 2:0 32 0] [14] 0 1
r 28.900035318 _1_ RTR  --- 16 cbr 512 [0 0 0 0] ------- [1:0 2:0 32 0] [14] 0 1
SFs 28.900035318 _1_ 16 [1 -> 2] 1(0) to 2 
s 28.900035318 _1_ RTR  --- 16 cbr 532 [0 0 0 0] ------- [1:0 2:0 32 2] [14] 0 1
s 28.900590318 _1_ MAC  --- 0 RTS 44 [14ee 2 1 0] 
r 28.900942619 _2_ MAC  --- 0 RTS 44 [14ee 2 1 0] 
s 28.900952619 _2_ MAC  --- 0 CTS 38 [13b4 1 0 0] 
r 28.901256920 _1_ MAC  --- 0 CTS 38 [13b4 1 0 0] 
s 28.901266920 _1_ MAC  --- 16 cbr 590 [13a 2 1 800] ------- [1:0 2:0 32 2] [14] 0 1
r 28.905987221 _2_ MAC  --- 16 cbr 532 [13a 2 1 800] ------- [1:0 2:0 32 2] [14] 1 1
s 28.905997221 _2_ MAC  --- 0 ACK 38 [0 1 0 0] 
r 28.906012221 _2_ RTR  --- 16 cbr 532 [13a 2 1 800] ------- [1:0 2:0 32 2] [14] 1 1
r 28.906012221 _2_ AGT  --- 16 cbr 512 [13a 2 1 800] ------- [1:0 2:0 32 2] [14] 1 1
r 28.906301522 _1_ MAC  --- 0 ACK 38 [0 1 0 0] 
s 29.142752401 _1_ AGT  --- 17 cbr 512 [0 0 0 0] ------- [1:0 2:0 32 0] [15] 0 1
r 29.142752401 _1_ RTR  --- 17 cbr 512 [0 0 0 0] ------- [1:0 2:0 32 0] [15] 0 1
SFs 29.142752401 _1_ 17 [1 -> 2] 1(0) to 2 
s 29.142752401 _1_ RTR  --- 17 cbr 532 [0 0 0 0] ------- [1:0 2:0 32 2] [15] 0 1
s 29.143287401 _1_ MAC  --- 0 RTS 44 [14ee 2 1 0] 
r 29.143639702 _2_ MAC  --- 0 RTS 44 [14ee 2 1 0] 
s 29.143649702 _2_ MAC  --- 0 CTS 38 [13b4 1 0 0] 
r 29.143954003 _1_ MAC  --- 0 CTS 38 [13b4 1 0 0] 
s 29.143964003 _1_ MAC  --- 17 cbr 590 [13a 2 1 800] ------- [1:0 2:0 32 2] [15] 0 1
r 29.148684305 _2_ MAC  --- 17 cbr 532 [13a 2 1 800] ------- [1:0 2:0 32 2] [15] 1 1
s 29.148694305 _2_ MAC  --- 0 ACK 38 [0 1 0 0] 
r 29.148709305 _2_ RTR  --- 17 cbr 532 [13a 2 1 800] ------- [1:0 2:0 32 2] [15] 1 1
r 29.148709305 _2_ AGT  --- 17 cbr 512 [13a 2 1 800] ------- [1:0 2:0 32 2] [15] 1 1
r 29.148998606 _1_ MAC  --- 0 ACK 38 [0 1 0 0] 
s 29.487142318 _1_ AGT  --- 18 cbr 512 [0 0 0 0] ------- [1:0 2:0 32 0] [16] 0 1
r 29.487142318 _1_ RTR  --- 18 cbr 512 [0 0 0 0] ------- [1:0 2:0 32 0] [16] 0 1
SFs 29.487142318 _1_ 18 [1 -> 2] 1(0) to 2 
s 29.487142318 _1_ RTR  --- 18 cbr 532 [0 0 0 0] ------- [1:0 2:0 32 2] [16] 0 1
s 29.487297318 _1_ MAC  --- 0 RTS 44 [14ee 2 1 0] 
r 29.487649620 _2_ MAC  --- 0 RTS 44 [14ee 2 1 0] 
s 29.487659620 _2_ MAC  --- 0 CTS 38 [13b4 1 0 0] 
r 29.487963922 _1_ MAC  --- 0 CTS 38 [13b4 1 0 0] 
s 29.487973922 _1_ MAC  --- 18 cbr 590 [13a 2 1 800] ------- [1:0 2:0 32 2] [16] 0 1
r 29.492694224 _2_ MAC  --- 18 cbr 532 [13a 2 1 800] ------- [1:0 2:0 32 2] [16] 1 1
s 29.492704224 _2_ MAC  --- 0 ACK 38 [0 1 0 0] 
r 29.492719224 _2_ RTR  --- 18 cbr 532 [13a 2 1 800] ------- [1:0 2:0 32 2] [16] 1 1
r 29.492719224 _2_ AGT  --- 18 cbr 512 [13a 2 1 800] ------- [1:0 2:0 32 2] [16] 1 1
r 29.493008526 _1_ MAC  --- 0 ACK 38 [0 1 0 0] 
s 29.659250595 _1_ AGT  --- 19 cbr 512 [0 0 0 0] ------- [1:0 2:0 32 0] [17] 0 1
r 29.659250595 _1_ RTR  --- 19 cbr 512 [0 0 0 0] ------- [1:0 2:0 32 0] [17] 0 1
SFs 29.659250595 _1_ 19 [1 -> 2] 1(0) to 2 
s 29.659250595 _1_ RTR  --- 19 cbr 532 [0 0 0 0] ------- [1:0 2:0 32 2] [17] 0 1
s 29.659705595 _1_ MAC  --- 0 RTS 44 [14ee 2 1 0] 
r 29.660057897 _2_ MAC  --- 0 RTS 44 [14ee 2 1 0] 
s 29.660067897 _2_ MAC  --- 0 CTS 38 [13b4 1 0 0] 
r 29.660372200 _1_ MAC  --- 0 CTS 38 [13b4 1 0 0] 
s 29.660382200 _1_ MAC  --- 19 cbr 590 [13a 2 1 800] ------- [1:0 2:0 32 2] [17] 0 1
r 29.665102502 _2_ MAC  --- 19 cbr 532 [13a 2 1 800] ------- [1:0 2:0 32 2] [17] 1 1
s 29.665112502 _2_ MAC  --- 0 ACK 38 [0 1 0 0] 
r 29.665127502 _2_ RTR  --- 19 cbr 532 [13a 2 1 800] ------- [1:0 2:0 32 2] [17] 1 1
r 29.665127502 _2_ AGT  --- 19 cbr 512 [13a 2 1 800] ------- [1:0 2:0 32 2] [17] 1 1
r 29.665416804 _1_ MAC  --- 0 ACK 38 [0 1 0 0] 
s 29.844784373 _1_ AGT  --- 20 cbr 512 [0 0 0 0] ------- [1:0 2:0 32 0] [18] 0 1
r 29.844784373 _1_ RTR  --- 20 cbr 512 [0 0 0 0] ------- [1:0 2:0 32 0] [18] 0 1
SFs 29.844784373 _1_ 20 [1 -> 2] 1(0) to 2 
s 29.844784373 _1_ RTR  --- 20 cbr 532 [0 0 0 0] ------- [1:0 2:0 32 2] [18] 0 1
s 29.845419373 _1_ MAC  --- 0 RTS 44 [14ee 2 1 0] 
r 29.845771675 _2_ MAC  --- 0 RTS 44 [14ee 2 1 0] 
s 29.845781675 _2_ MAC  --- 0 CTS 38 [13b4 1 0 0] 
r 29.846085978 _1_ MAC  --- 0 CTS 38 [13b4 1 0 0] 
s 29.846095978 _1_ MAC  --- 20 cbr 590 [13a 2 1 800] ------- [1:0 2:0 32 2] [18] 0 1
r 29.850816280 _2_ MAC  --- 20 cbr 532 [13a 2 1 800] ------- [1:0 2:0 32 2] [18] 1 1
s 29.850826280 _2_ MAC  --- 0 ACK 38 [0 1 0 0] 
r 29.850841280 _2_ RTR  --- 20 cbr 532 [13a 2 1 800] ------- [1:0 2:0 32 2] [18] 1 1
r 29.850841280 _2_ AGT  --- 20 cbr 512 [13a 2 1 800] ------- [1:0 2:0 32 2] [18] 1 1
r 29.851130583 _1_ MAC  --- 0 ACK 38 [0 1 0 0] 
s 30.204826160 _1_ AGT  --- 21 cbr 512 [0 0 0 0] ------- [1:0 2:0 32 0] [19] 0 1
r 30.204826160 _1_ RTR  --- 21 cbr 512 [0 0 0 0] ------- [1:0 2:0 32 0] [19] 0 1
SFs 30.204826160 _1_ 21 [1 -> 2] 1(0) to 2 
s 30.204826160 _1_ RTR  --- 21 cbr 532 [0 0 0 0] ------- [1:0 2:0 32 2] [19] 0 1
s 30.205361160 _1_ MAC  --- 0 RTS 44 [14ee 2 1 0] 
r 30.205713463 _2_ MAC  --- 0 RTS 44 [14ee 2 1 0] 
s 30.205723463 _2_ MAC  --- 0 CTS 38 [13b4 1 0 0] 
r 30.206027766 _1_ MAC  --- 0 CTS 38 [13b4 1 0 0] 
s 30.206037766 _1_ MAC  --- 21 cbr 590 [13a 2 1 800] ------- [1:0 2:0 32 2] [19] 0 1
r 30.210758069 _2_ MAC  --- 21 cbr 532 [13a 2 1 800] ------- [1:0 2:0 32 2] [19] 1 1
s 30.210768069 _2_ MAC  --- 0 ACK 38 [0 1 0 0] 
r 30.210783069 _2_ RTR  --- 21 cbr 532 [13a 2 1 800] ------- [1:0 2:0 32 2] [19] 1 1
r 30.210783069 _2_ AGT  --- 21 cbr 512 [13a 2 1 800] ------- [1:0 2:0 32 2] [19] 1 1
r 30.211072372 _1_ MAC  --- 0 ACK 38 [0 1 0 0] 
s 30.454589445 _1_ AGT  --- 22 cbr 512 [0 0 0 0] ------- [1:0 2:0 32 0] [20] 0 1
r 30.454589445 _1_ RTR  --- 22 cbr 512 [0 0 0 0] ------- [1:0 2:0 32 0] [20] 0 1
SFs 30.454589445 _1_ 22 [1 -> 2] 1(0) to 2 
s 30.454589445 _1_ RTR  --- 22 cbr 532 [0 0 0 0] ------- [1:0 2:0 32 2] [20] 0 1
s 30.454844445 _1_ MAC  --- 0 RTS 44 [14ee 2 1 0] 
r 30.455196748 _2_ MAC  --- 0 RTS 44 [14ee 2 1 0] 
s 30.455206748 _2_ MAC  --- 0 CTS 38 [13b4 1 0 0] 
r 30.455511051 _1_ MAC  --- 0 CTS 38 [13b4 1 0 0] 
s 30.455521051 _1_ MAC  --- 22 cbr 590 [13a 2 1 800] ------- [1:0 2:0 32 2] [20] 0 1
r 30.460241355 _2_ MAC  --- 22 cbr 532 [13a 2 1 800] ------- [1:0 2:0 32 2] [20] 1 1
s 30.460251355 _2_ MAC  --- 0 ACK 38 [0 1 0 0] 
r 30.460266355 _2_ RTR  --- 22 cbr 532 [13a 2 1 800] ------- [1:0 2:0 32 2] [20] 1 1
r 30.460266355 _2_ AGT  --- 22 cbr 512 [13a 2 1 800] ------- [1:0 2:0 32 2] [20] 1 1
r 30.460555658 _1_ MAC  --- 0 ACK 38 [0 1 0 0] 
s 30.706854119 _1_ AGT  --- 23 cbr 512 [0 0 0 0] ------- [1:0 2:0 32 0] [21] 0 1
r 30.706854119 _1_ RTR  --- 23 cbr 512 [0 0 0 0] ------- [1:0 2:0 32 0] [21] 0 1
SFs 30.706854119 _1_ 23 [1 -> 2] 1(0) to 2 
s 30.706854119 _1_ RTR  --- 23 cbr 532 [0 0 0 0] ------- [1:0 2:0 32 2] [21] 0 1
s 30.707209119 _1_ MAC  --- 0 RTS 44 [14ee 2 1 0] 
r 30.707561423 _2_ MAC  --- 0 RTS 44 [14ee 2 1 0] 
s 30.707571423 _2_ MAC  --- 0 CTS 38 [13b4 1 0 0] 
r 30.707875726 _1_ MAC  --- 0 CTS 38 [13b4 1 0 0] 
s 30.707885726 _1_ MAC  --- 23 cbr 590 [13a 2 1 800] ------- [1:0 2:0 32 2] [21] 0 1
r 30.712606030 _2_ MAC  --- 23 cbr 532 [13a 2 1 800] ------- [1:0 2:0 32 2] [21] 1 1
s 30.712616030 _2_ MAC  --- 0 ACK 38 [0 1 0 0] 
r 30.712631030 _2_ RTR  --- 23 cbr 532 [13a 2 1 800] ------- [1:0 2:0 32 2] [21] 1 1
r 30.712631030 _2_ AGT  --- 23 cbr 512 [13a 2 1 800] ------- [1:0 2:0 32 2] [21] 1 1
r 30.712920334 _1_ MAC  --- 0 ACK 38 [0 1 0 0] 
s 30.840067818 _1_ AGT  --- 24 cbr 512 [0 0 0 0] ------- [1:0 2:0 32 0] [22] 0 1
r 30.840067818 _1_ RTR  --- 24 cbr 512 [0 0 0 0] ------- [1:0 2:0 32 0] [22] 0 1
SFs 30.840067818 _1_ 24 [1 -> 2] 1(0) to 2 
s 30.840067818 _1_ RTR  --- 24 cbr 532 [0 0 0 0] ------- [1:0 2:0 32 2] [22] 0 1
s 30.840562818 _1_ MAC  --- 0 RTS 44 [14ee 2 1 0] 
r 30.840915122 _2_ MAC  --- 0 RTS 44 [14ee 2 1 0] 
s 30.840925122 _2_ MAC  --- 0 CTS 38 [13b4 1 0 0] 
r 30.841229426 _1_ MAC  --- 0 CTS 38 [13b4 1 0 0] 
s 30.841239426 _1_ MAC  --- 24 cbr 590 [13a 2 1 800] ------- [1:0 2:0 32 2] [22] 0 1
r 30.845959730 _2_ MAC  --- 24 cbr 532 [13a 2 1 800] ------- [1:0 2:0 32 2] [22] 1 1
s 30.845969730 _2_ MAC  --- 0 ACK 38 [0 1 0 0] 
r 30.845984730 _2_ RTR  --- 24 cbr 532 [13a 2 1 800] ------- [1:0 2:0 32 2] [22] 1 1
r 30.845984730 _2_ AGT  --- 24 cbr 512 [13a 2 1 800] ------- [1:0 2:0 32 2] [22] 1 1
r 30.846274034 _1_ MAC  --- 0 ACK 38 [0 1 0 0] 
s 30.995738574 _1_ AGT  --- 25 cbr 512 [0 0 0 0] ------- [1:0 2:0 32 0] [23] 0 1
r 30.995738574 _1_ RTR  --- 25 cbr 512 [0 0 0 0] ------- [1:0 2:0 32 0] [23] 0 1
SFs 30.995738574 _1_ 25 [1 -> 2] 1(0) to 2 
s 30.995738574 _1_ RTR  --- 25 cbr 532 [0 0 0 0] ------- [1:0 2:0 32 2] [23] 0 1
s 30.995953574 _1_ MAC  --- 0 RTS 44 [14ee 2 1 0] 
r 30.996305878 _2_ MAC  --- 0 RTS 44 [14ee 2 1 0] 
s 30.996315878 _2_ MAC  --- 0 CTS 38 [13b4 1 0 0] 
r 30.996620182 _1_ MAC  --- 0 CTS 38 [13b4 1 0 0] 
s 30.996630182 _1_ MAC  --- 25 cbr 590 [13a 2 1 800] ------- [1:0 2:0 32 2] [23] 0 1
r 31.001350487 _2_ MAC  --- 25 cbr 532 [13a 2 1 800] ------- [1:0 2:0 32 2] [23] 1 1
s 31.001360487 _2_ MAC  --- 0 ACK 38 [0 1 0 0] 
r 31.001375487 _2_ RTR  --- 25 cbr 532 [13a 2 1 800] ------- [1:0 2:0 32 2] [23] 1 1
r 31.001375487 _2_ AGT  --- 25 cbr 512 [13a 2 1 800] ------- [1:0 2:0 32 2] [23] 1 1
r 31.001664791 _1_ MAC  --- 0 ACK 38 [0 1 0 0] 
s 31.278527627 _1_ AGT  --- 26 cbr 512 [0 0 0 0] ------- [1:0 2:0 32 0] [24] 0 1
r 31.278527627 _1_ RTR  --- 26 cbr 512 [0 0 0 0] ------- [1:0 2:0 32 0] [24] 0 1
SFESTs 31.278527627 _1_ 26 [1 -> 2] 1(1) to 2 [1 |2 ]
s 31.278527627 _1_ RTR  --- 26 cbr 548 [0 0 0 0] ------- [1:0 2:0 32 2] [24] 0 1
s 31.278962627 _1_ MAC  --- 0 RTS 44 [156e 2 1 0] 
r 31.279314932 _2_ MAC  --- 0 RTS 44 [156e 2 1 0] 
s 31.279324932 _2_ MAC  --- 0 CTS 38 [1434 1 0 0] 
r 31.279629236 _1_ MAC  --- 0 CTS 38 [1434 1 0 0] 
s 31.279639236 _1_ MAC  --- 26 cbr 606 [13a 2 1 800] ------- [1:0 2:0 32 2] [24] 0 1
r 31.284487541 _2_ MAC  --- 26 cbr 548 [13a 2 1 800] ------- [1:0 2:0 32 2] [24] 1 1
s 31.284497541 _2_ MAC  --- 0 ACK 38 [0 1 0 0] 
r 31.284512541 _2_ RTR  --- 26 cbr 548 [13a 2 1 800] ------- [1:0 2:0 32 2] [24] 1 1
r 31.284512541 _2_ AGT  --- 26 cbr 512 [13a 2 1 800] ------- [1:0 2:0 32 2] [24] 1 1
r 31.284801846 _1_ MAC  --- 0 ACK 38 [0 1 0 0] 
s 31.409937213 _1_ AGT  --- 27 cbr 512 [0 0 0 0] ------- [1:0 2:0 32 0] [25] 0 1
r 31.409937213 _1_ RTR  --- 27 cbr 512 [0 0 0 0] ------- [1:0 2:0 32 0] [25] 0 1
SFs 31.409937213 _1_ 27 [1 -> 2] 1(0) to 2 
s 31.409937213 _1_ RTR  --- 27 cbr 532 [0 0 0 0] ------- [1:0 2:0 32 2] [25] 0 1
s 31.410452213 _1_ MAC  --- 0 RTS 44 [14ee 2 1 0] 
r 31.410804518 _2_ MAC  --- 0 RTS 44 [14ee 2 1 0] 
s 31.410814518 _2_ MAC  --- 0 CTS 38 [13b4 1 0 0] 
r 31.411118823 _1_ MAC  --- 0 CTS 38 [13b4 1 0 0] 
s 31.411128823 _1_ MAC  --- 27 cbr 590 [13a 2 1 800] ------- [1:0 2:0 32 2] [25] 0 1
r 31.415849128 _2_ MAC  --- 27 cbr 532 [13a 2 1 800] ------- [1:0 2:0 32 2] [25] 1 1
s 31.415859128 _2_ MAC  --- 0 ACK 38 [0 1 0 0] 
r 31.415874128 _2_ RTR  --- 27 cbr 532 [13a 2 1 800] ------- [1:0 2:0 32 2] [25] 1 1
r 31.415874128 _2_ AGT  --- 27 cbr 512 [13a 2 1 800] ------- [1:0 2:0 32 2] [25] 1 1
r 31.416163432 _1_ MAC  --- 0 ACK 38 [0 1 0 0] 
s 31.734480299 _1_ AGT  --- 28 cbr 512 [0 0 0 0] ------- [1:0 2:0 32 0] [26] 0 1
r 31.734480299 _1_ RTR  --- 28 cbr 512 [0 0 0 0] ------- [1:0 2:0 32 0] [26] 0 1
SFs 31.734480299 _1_ 28 [1 -> 2] 1(0) to 2 
s 31.734480299 _1_ RTR  --- 28 cbr 532 [0 0 0 0] ------- [1:0 2:0 32 2] [26] 0 1
s 31.734735299 _1_ MAC  --- 0 RTS 44 [14ee 2 1 0] 
r 31.735087604 _2_ MAC  --- 0 RTS 44 [14ee 2 1 0] 
s 31.735097604 _2_ MAC  --- 0 CTS 38 [13b4 1 0 0] 
r 31.735401910 _1_ MAC  --- 0 CTS 38 [13b4 1 0 0] 
s 31.735411910 _1_ MAC  --- 28 cbr 590 [13a 2 1 800] ------- [1:0 2:0 32 2] [26] 0 1
r 31.740132215 _2_ MAC  --- 28 cbr 532 [13a 2 1 800] ------- [1:0 2:0 32 2] [26] 1 1
s 31.740142215 _2_ MAC  --- 0 ACK 38 [0 1 0 0] 
r 31.740157215 _2_ RTR  --- 28 cbr 532 [13a 2 1 800] ------- [1:0 2:0 32 2] [26] 1 1
r 31.740157215 _2_ AGT  --- 28 cbr 512 [13a 2 1 800] ------- [1:0 2:0 32 2] [26] 1 1
r 31.740446520 _1_ MAC  --- 0 ACK 38 [0 1 0 0] 
s 31.909709247 _1_ AGT  --- 29 cbr 512 [0 0 0 0] ------- [1:0 2:0 32 0] [27] 0 1
r 31.909709247 _1_ RTR  --- 29 cbr 512 [0 0 0 0] ------- [1:0 2:0 32 0] [27] 0 1
SFs 31.909709247 _1_ 29 [1 -> 2] 1(0) to 2 
s 31.909709247 _1_ RTR  --- 29 cbr 532 [0 0 0 0] ------- [1:0 2:0 32 2] [27] 0 1
s 31.910184247 _1_ MAC  --- 0 RTS 44 [14ee 2 1 0] 
r 31.910536553 _2_ MAC  --- 0 RTS 44 [14ee 2 1 0] 
s 31.910546553 _2_ MAC  --- 0 CTS 38 [13b4 1 0 0] 
r 31.910850858 _1_ MAC  --- 0 CTS 38 [13b4 1 0 0] 
s 31.910860858 _1_ MAC  --- 29 cbr 590 [13a 2 1 800] ------- [1:0 2:0 32 2] [27] 0 1
r 31.915581164 _2_ MAC  --- 29 cbr 532 [13a 2 1 800] ------- [1:0 2:0 32 2] [27] 1 1
s 31.915591164 _2_ MAC  --- 0 ACK 38 [0 1 0 0] 
r 31.915606164 _2_ RTR  --- 29 cbr 532 [13a 2 1 800] ------- [1:0 2:0 32 2] [27] 1 1
r 31.915606164 _2_ AGT  --- 29 cbr 512 [13a 2 1 800] ------- [1:0 2:0 32 2] [27] 1 1
r 31.915895470 _1_ MAC  --- 0 ACK 38 [0 1 0 0] 
s 32.215360525 _1_ AGT  --- 30 cbr 512 [0 0 0 0] ------- [1:0 2:0 32 0] [28] 0 1
r 32.215360525 _1_ RTR  --- 30 cbr 512 [0 0 0 0] ------- [1:0 2:0 32 0] [28] 0 1
SFs 32.215360525 _1_ 30 [1 -> 2] 1(0) to 2 
s 32.215360525 _1_ RTR  --- 30 cbr 532 [0 0 0 0] ------- [1:0 2:0 32 2] [28] 0 1
s 32.216035525 _1_ MAC  --- 0 RTS 44 [14ee 2 1 0] 
r 32.216387831 _2_ MAC  --- 0 RTS 44 [14ee 2 1 0] 
s 32.216397831 _2_ MAC  --- 0 CTS 38 [13b4 1 0 0] 
r 32.216702137 _1_ MAC  --- 0 CTS 38 [13b4 1 0 0] 
s 32.216712137 _1_ MAC  --- 30 cbr 590 [13a 2 1 800] ------- [1:0 2:0 32 2] [28] 0 1
r 32.221432443 _2_ MAC  --- 30 cbr 532 [13a 2 1 800] ------- [1:0 2:0 32 2] [28] 1 1
s 32.221442443 _2_ MAC  --- 0 ACK 38 [0 1 0 0] 
r 32.221457443 _2_ RTR  --- 30 cbr 532 [13a 2 1 800] ------- [1:0 2:0 32 2] [28] 1 1