n -t * -s 0  -x 0 -y 0 -Z 0 -z 10  -v circle -c black
n -t * -s 1  -x 0 -y 0 -Z 0 -z 10  -v circle -c black
n -t * -s 2  -x 0 -y 0 -Z 0 -z 10  -v circle -c black
n -t * -s 3  -x 0 -y 0 -Z 0 -z 10  -v circle -c black
n -t * -s 4  -x 0 -y 0 -Z 0 -z 10  -v circle -c black
n -t * -s 5  -x 0 -y 0 -Z 0 -z 10  -v circle -c black
n -t * -s 6  -x 0 -y 0 -Z 0 -z 10  -v circle -c black
n -t * -s 7  -x 0 -y 0 -Z 0 -z 10  -v circle -c black
n -t * -s 8  -x 0 -y 0 -Z 0 -z 10  -v circle -c black
n -t * -s 9  -x 0 -y 0 -Z 0 -z 10  -v circle -c black
V -t * -v 1.0a5 -a 0
W -t * -x 1000 -y 1000
A -t * -n 1 -p 0 -o 0x7fffffff -c 30 -a 1
A -t * -h 1 -m 1073741823 -s 0
n -t 10.000000 -s 0 -x 514.363968 -y 284.340619 -U -0.004406 -V 0.012700 -T 49407.487580
n -t 10.000000 -s 1 -x 643.659896 -y 149.919625 -U -0.747944 -V -0.326872 -T 416.009650
n -t 10.000000 -s 2 -x 725.967589 -y 148.703643 -U -0.336505 -V 0.084263 -T 938.882429
n -t 10.000000 -s 3 -x 665.333009 -y 725.174954 -U -0.001738 -V -0.308863 -T 444.960857
n -t 10.000000 -s 4 -x 682.881447 -y 101.166921 -U -0.247885 -V 0.134216 -T 1831.177845
n -t 10.000000 -s 5 -x 366.602131 -y 469.966771 -U 0.219274 -V 0.270086 -T 1127.906416
n -t 10.000000 -s 6 -x 835.597308 -y 721.863105 -U -0.119333 -V 0.002946 -T 4249.864118
n -t 10.000000 -s 7 -x 937.160277 -y 560.155071 -U -0.774885 -V 0.061795 -T 1096.136563
n -t 10.000000 -s 8 -x 2.252052 -y 360.668296 -U 0.220096 -V 0.360046 -T 738.918654
n -t 10.000000 -s 9 -x 456.678403 -y 486.648594 -U 0.519000 -V 0.539641 -T 726.356221
+ -t 25.561746129 -s 1 -d -1 -p cbr -e 512 -c 2 -a 0 -i 0 -k AGT 
- -t 25.561746129 -s 1 -d -1 -p cbr -e 512 -c 2 -a 0 -i 0 -k AGT
h -t 25.561746129 -s 1 -d -1 -p cbr -e 512 -c 2 -a 0 -i 0 -k AGT
+ -t 25.562499472 -s 1 -d -1 -p DSR -e 32 -c 2 -a 0 -i 1 -k RTR 
- -t 25.562499472 -s 1 -d -1 -p DSR -e 32 -c 2 -a 0 -i 1 -k RTR
h -t 25.562499472 -s 1 -d -1 -p DSR -e 32 -c 2 -a 0 -i 1 -k RTR
+ -t 25.563134472 -s 1 -d -1 -p DSR -e 90 -c 2 -a 0 -i 1 -k MAC 
- -t 25.563134472 -s 1 -d -1 -p DSR -e 90 -c 2 -a 0 -i 1 -k MAC
h -t 25.563134472 -s 1 -d -1 -p DSR -e 90 -c 2 -a 0 -i 1 -k MAC
r -t 25.563854681 -s 4 -d -1 -p DSR -e 32 -c 2 -a 0 -i 1 -k MAC
r -t 25.563854768 -s 2 -d -1 -p DSR -e 32 -c 2 -a 0 -i 1 -k MAC
r -t 25.563855081 -s 0 -d -1 -p DSR -e 32 -c 2 -a 0 -i 1 -k MAC
+ -t 25.564334261 -s 2 -d 1 -p DSR -e 44 -c 2 -a 0 -i 2 -k RTR 
- -t 25.564334261 -s 2 -d 1 -p DSR -e 44 -c 2 -a 0 -i 2 -k RTR
h -t 25.564334261 -s 2 -d 1 -p DSR -e 44 -c 2 -a 0 -i 2 -k RTR
+ -t 25.564749261 -s 2 -d -1 -p ARP -e 86 -c 2 -a 0 -i 0 -k MAC 
- -t 25.564749261 -s 2 -d -1 -p ARP -e 86 -c 2 -a 0 -i 0 -k MAC
h -t 25.564749261 -s 2 -d -1 -p ARP -e 86 -c 2 -a 0 -i 0 -k MAC
r -t 25.565437470 -s 4 -d -1 -p ARP -e 28 -c 2 -a 0 -i 0 -k MAC
r -t 25.565437558 -s 1 -d -1 -p ARP -e 28 -c 2 -a 0 -i 0 -k MAC
r -t 25.565438083 -s 0 -d -1 -p ARP -e 28 -c 2 -a 0 -i 0 -k MAC
+ -t 25.565852558 -s 1 -d -1 -p RTS -e 44 -c 2 -a 0 -i 0 -k MAC 
- -t 25.565852558 -s 1 -d -1 -p RTS -e 44 -c 2 -a 0 -i 0 -k MAC
h -t 25.565852558 -s 1 -d -1 -p RTS -e 44 -c 2 -a 0 -i 0 -k MAC
r -t 25.566204854 -s 2 -d -1 -p RTS -e 44 -c 2 -a 0 -i 0 -k MAC
+ -t 25.566214854 -s 2 -d -1 -p CTS -e 38 -c 2 -a 0 -i 0 -k MAC 
- -t 25.566214854 -s 2 -d -1 -p CTS -e 38 -c 2 -a 0 -i 0 -k MAC
h -t 25.566214854 -s 2 -d -1 -p CTS -e 38 -c 2 -a 0 -i 0 -k MAC
r -t 25.566519150 -s 1 -d -1 -p CTS -e 38 -c 2 -a 0 -i 0 -k MAC
+ -t 25.566529150 -s 1 -d -1 -p ARP -e 86 -c 2 -a 0 -i 0 -k MAC 
- -t 25.566529150 -s 1 -d -1 -p ARP -e 86 -c 2 -a 0 -i 0 -k MAC
h -t 25.566529150 -s 1 -d -1 -p ARP -e 86 -c 2 -a 0 -i 0 -k MAC
r -t 25.567217446 -s 2 -d -1 -p ARP -e 28 -c 2 -a 0 -i 0 -k MAC
+ -t 25.567227446 -s 2 -d -1 -p ACK -e 38 -c 2 -a 0 -i 0 -k MAC 
- -t 25.567227446 -s 2 -d -1 -p ACK -e 38 -c 2 -a 0 -i 0 -k MAC
h -t 25.567227446 -s 2 -d -1 -p ACK -e 38 -c 2 -a 0 -i 0 -k MAC
r -t 25.567531742 -s 1 -d -1 -p ACK -e 38 -c 2 -a 0 -i 0 -k MAC
+ -t 25.567681446 -s 2 -d -1 -p RTS -e 44 -c 2 -a 0 -i 0 -k MAC 
- -t 25.567681446 -s 2 -d -1 -p RTS -e 44 -c 2 -a 0 -i 0 -k MAC
h -t 25.567681446 -s 2 -d -1 -p RTS -e 44 -c 2 -a 0 -i 0 -k MAC
r -t 25.568033742 -s 1 -d -1 -p RTS -e 44 -c 2 -a 0 -i 0 -k MAC
+ -t 25.568043742 -s 1 -d -1 -p CTS -e 38 -c 2 -a 0 -i 0 -k MAC 
- -t 25.568043742 -s 1 -d -1 -p CTS -e 38 -c 2 -a 0 -i 0 -k MAC
h -t 25.568043742 -s 1 -d -1 -p CTS -e 38 -c 2 -a 0 -i 0 -k MAC
r -t 25.568348039 -s 2 -d -1 -p CTS -e 38 -c 2 -a 0 -i 0 -k MAC
+ -t 25.568358039 -s 2 -d 1 -p DSR -e 102 -c 2 -a 0 -i 2 -k MAC 
- -t 25.568358039 -s 2 -d 1 -p DSR -e 102 -c 2 -a 0 -i 2 -k MAC
h -t 25.568358039 -s 2 -d 1 -p DSR -e 102 -c 2 -a 0 -i 2 -k MAC
r -t 25.569174335 -s 1 -d 1 -p DSR -e 44 -c 2 -a 0 -i 2 -k MAC
+ -t 25.569184335 -s 1 -d -1 -p ACK -e 38 -c 2 -a 0 -i 0 -k MAC 
- -t 25.569184335 -s 1 -d -1 -p ACK -e 38 -c 2 -a 0 -i 0 -k MAC
h -t 25.569184335 -s 1 -d -1 -p ACK -e 38 -c 2 -a 0 -i 0 -k MAC
+ -t 25.569199335 -s 1 -d 2 -p cbr -e 548 -c 2 -a 0 -i 0 -k RTR 
- -t 25.569199335 -s 1 -d 2 -p cbr -e 548 -c 2 -a 0 -i 0 -k RTR
h -t 25.569199335 -s 1 -d 2 -p cbr -e 548 -c 2 -a 0 -i 0 -k RTR
r -t 25.569488631 -s 2 -d -1 -p ACK -e 38 -c 2 -a 0 -i 0 -k MAC
+ -t 25.569958335 -s 1 -d -1 -p RTS -e 44 -c 2 -a 0 -i 0 -k MAC 
- -t 25.569958335 -s 1 -d -1 -p RTS -e 44 -c 2 -a 0 -i 0 -k MAC
h -t 25.569958335 -s 1 -d -1 -p RTS -e 44 -c 2 -a 0 -i 0 -k MAC
r -t 25.570310631 -s 2 -d -1 -p RTS -e 44 -c 2 -a 0 -i 0 -k MAC
+ -t 25.570320631 -s 2 -d -1 -p CTS -e 38 -c 2 -a 0 -i 0 -k MAC 
- -t 25.570320631 -s 2 -d -1 -p CTS -e 38 -c 2 -a 0 -i 0 -k MAC
h -t 25.570320631 -s 2 -d -1 -p CTS -e 38 -c 2 -a 0 -i 0 -k MAC
r -t 25.570624927 -s 1 -d -1 -p CTS -e 38 -c 2 -a 0 -i 0 -k MAC
+ -t 25.570634927 -s 1 -d 2 -p cbr -e 606 -c 2 -a 0 -i 0 -k MAC 
- -t 25.570634927 -s 1 -d 2 -p cbr -e 606 -c 2 -a 0 -i 0 -k MAC
h -t 25.570634927 -s 1 -d 2 -p cbr -e 606 -c 2 -a 0 -i 0 -k MAC
r -t 25.575483223 -s 2 -d 2 -p cbr -e 548 -c 2 -a 0 -i 0 -k MAC
+ -t 25.575493223 -s 2 -d -1 -p ACK -e 38 -c 2 -a 0 -i 0 -k MAC 
- -t 25.575493223 -s 2 -d -1 -p ACK -e 38 -c 2 -a 0 -i 0 -k MAC
h -t 25.575493223 -s 2 -d -1 -p ACK -e 38 -c 2 -a 0 -i 0 -k MAC
r -t 25.575508223 -s 2 -d 2 -p cbr -e 512 -c 2 -a 0 -i 0 -k AGT
r -t 25.575797520 -s 1 -d -1 -p ACK -e 38 -c 2 -a 0 -i 0 -k MAC
+ -t 25.710340606 -s 1 -d -1 -p cbr -e 512 -c 2 -a 0 -i 3 -k AGT 
- -t 25.710340606 -s 1 -d -1 -p cbr -e 512 -c 2 -a 0 -i 3 -k AGT
h -t 25.710340606 -s 1 -d -1 -p cbr -e 512 -c 2 -a 0 -i 3 -k AGT
+ -t 25.710340606 -s 1 -d 2 -p cbr -e 548 -c 2 -a 0 -i 3 -k RTR 
- -t 25.710340606 -s 1 -d 2 -p cbr -e 548 -c 2 -a 0 -i 3 -k RTR
h -t 25.710340606 -s 1 -d 2 -p cbr -e 548 -c 2 -a 0 -i 3 -k RTR
+ -t 25.710595606 -s 1 -d -1 -p RTS -e 44 -c 2 -a 0 -i 0 -k MAC 
- -t 25.710595606 -s 1 -d -1 -p RTS -e 44 -c 2 -a 0 -i 0 -k MAC
h -t 25.710595606 -s 1 -d -1 -p RTS -e 44 -c 2 -a 0 -i 0 -k MAC
r -t 25.710947902 -s 2 -d -1 -p RTS -e 44 -c 2 -a 0 -i 0 -k MAC
+ -t 25.710957902 -s 2 -d -1 -p CTS -e 38 -c 2 -a 0 -i 0 -k MAC 
- -t 25.710957902 -s 2 -d -1 -p CTS -e 38 -c 2 -a 0 -i 0 -k MAC
h -t 25.710957902 -s 2 -d -1 -p CTS -e 38 -c 2 -a 0 -i 0 -k MAC
r -t 25.711262199 -s 1 -d -1 -p CTS -e 38 -c 2 -a 0 -i 0 -k MAC
+ -t 25.711272199 -s 1 -d 2 -p cbr -e 606 -c 2 -a 0 -i 3 -k MAC 
- -t 25.711272199 -s 1 -d 2 -p cbr -e 606 -c 2 -a 0 -i 3 -k MAC
h -t 25.711272199 -s 1 -d 2 -p cbr -e 606 -c 2 -a 0 -i 3 -k MAC
r -t 25.716120495 -s 2 -d 2 -p cbr -e 548 -c 2 -a 0 -i 3 -k MAC
+ -t 25.716130495 -s 2 -d -1 -p ACK -e 38 -c 2 -a 0 -i 0 -k MAC 
- -t 25.716130495 -s 2 -d -1 -p ACK -e 38 -c 2 -a 0 -i 0 -k MAC
h -t 25.716130495 -s 2 -d -1 -p ACK -e 38 -c 2 -a 0 -i 0 -k MAC
r -t 25.716145495 -s 2 -d 2 -p cbr -e 512 -c 2 -a 0 -i 3 -k AGT
r -t 25.716434792 -s 1 -d -1 -p ACK -e 38 -c 2 -a 0 -i 0 -k MAC
+ -t 26.052074560 -s 1 -d -1 -p cbr -e 512 -c 2 -a 0 -i 4 -k AGT 
- -t 26.052074560 -s 1 -d -1 -p cbr -e 512 -c 2 -a 0 -i 4 -k AGT
h -t 26.052074560 -s 1 -d -1 -p cbr -e 512 -c 2 -a 0 -i 4 -k AGT
+ -t 26.052074560 -s 1 -d 2 -p cbr -e 548 -c 2 -a 0 -i 4 -k RTR 
- -t 26.052074560 -s 1 -d 2 -p cbr -e 548 -c 2 -a 0 -i 4 -k RTR
h -t 26.052074560 -s 1 -d 2 -p cbr -e 548 -c 2 -a 0 -i 4 -k RTR
+ -t 26.052469560 -s 1 -d -1 -p RTS -e 44 -c 2 -a 0 -i 0 -k MAC 
- -t 26.052469560 -s 1 -d -1 -p RTS -e 44 -c 2 -a 0 -i 0 -k MAC
h -t 26.052469560 -s 1 -d -1 -p RTS -e 44 -c 2 -a 0 -i 0 -k MAC
r -t 26.052821857 -s 2 -d -1 -p RTS -e 44 -c 2 -a 0 -i 0 -k MAC
+ -t 26.052831857 -s 2 -d -1 -p CTS -e 38 -c 2 -a 0 -i 0 -k MAC 
- -t 26.052831857 -s 2 -d -1 -p CTS -e 38 -c 2 -a 0 -i 0 -k MAC
h -t 26.052831857 -s 2 -d -1 -p CTS -e 38 -c 2 -a 0 -i 0 -k MAC
r -t 26.053136154 -s 1 -d -1 -p CTS -e 38 -c 2 -a 0 -i 0 -k MAC
+ -t 26.053146154 -s 1 -d 2 -p cbr -e 606 -c 2 -a 0 -i 4 -k MAC 
- -t 26.053146154 -s 1 -d 2 -p cbr -e 606 -c 2 -a 0 -i 4 -k MAC
h -t 26.053146154 -s 1 -d 2 -p cbr -e 606 -c 2 -a 0 -i 4 -k MAC
r -t 26.057994451 -s 2 -d 2 -p cbr -e 548 -c 2 -a 0 -i 4 -k MAC
+ -t 26.058004451 -s 2 -d -1 -p ACK -e 38 -c 2 -a 0 -i 0 -k MAC 
- -t 26.058004451 -s 2 -d -1 -p ACK -e 38 -c 2 -a 0 -i 0 -k MAC
h -t 26.058004451 -s 2 -d -1 -p ACK -e 38 -c 2 -a 0 -i 0 -k MAC
r -t 26.058019451 -s 2 -d 2 -p cbr -e 512 -c 2 -a 0 -i 4 -k AGT
r -t 26.058308748 -s 1 -d -1 -p ACK -e 38 -c 2 -a 0 -i 0 -k MAC
+ -t 26.380540916 -s 1 -d -1 -p cbr -e 512 -c 2 -a 0 -i 5 -k AGT 
- -t 26.380540916 -s 1 -d -1 -p cbr -e 512 -c 2 -a 0 -i 5 -k AGT
h -t 26.380540916 -s 1 -d -1 -p cbr -e 512 -c 2 -a 0 -i 5 -k AGT
+ -t 26.380540916 -s 1 -d 2 -p cbr -e 532 -c 2 -a 0 -i 5 -k RTR 
- -t 26.380540916 -s 1 -d 2 -p cbr -e 532 -c 2 -a 0 -i 5 -k RTR
h -t 26.380540916 -s 1 -d 2 -p cbr -e 532 -c 2 -a 0 -i 5 -k RTR
+ -t 26.380695916 -s 1 -d -1 -p RTS -e 44 -c 2 -a 0 -i 0 -k MAC 
- -t 26.380695916 -s 1 -d -1 -p RTS -e 44 -c 2 -a 0 -i 0 -k MAC
h -t 26.380695916 -s 1 -d -1 -p RTS -e 44 -c 2 -a 0 -i 0 -k MAC
r -t 26.381048213 -s 2 -d -1 -p RTS -e 44 -c 2 -a 0 -i 0 -k MAC
+ -t 26.381058213 -s 2 -d -1 -p CTS -e 38 -c 2 -a 0 -i 0 -k MAC 
- -t 26.381058213 -s 2 -d -1 -p CTS -e 38 -c 2 -a 0 -i 0 -k MAC
h -t 26.381058213 -s 2 -d -1 -p CTS -e 38 -c 2 -a 0 -i 0 -k MAC
r -t 26.381362511 -s 1 -d -1 -p CTS -e 38 -c 2 -a 0 -i 0 -k MAC
+ -t 26.381372511 -s 1 -d 2 -p cbr -e 590 -c 2 -a 0 -i 5 -k MAC 
- -t 26.381372511 -s 1 -d 2 -p cbr -e 590 -c 2 -a 0 -i 5 -k MAC
h -t 26.381372511 -s 1 -d 2 -p cbr -e 590 -c 2 -a 0 -i 5 -k MAC
r -t 26.386092808 -s 2 -d 2 -p cbr -e 532 -c 2 -a 0 -i 5 -k MAC
+ -t 26.386102808 -s 2 -d -1 -p ACK -e 38 -c 2 -a 0 -i 0 -k MAC 
- -t 26.386102808 -s 2 -d -1 -p ACK -e 38 -c 2 -a 0 -i 0 -k MAC
h -t 26.386102808 -s 2 -d -1 -p ACK -e 38 -c 2 -a 0 -i 0 -k MAC
r -t 26.386117808 -s 2 -d 2 -p cbr -e 512 -c 2 -a 0 -i 5 -k AGT
r -t 26.386407106 -s 1 -d -1 -p ACK -e 38 -c 2 -a 0 -i 0 -k MAC
+ -t 26.566809209 -s 1 -d -1 -p cbr -e 512 -c 2 -a 0 -i 6 -k AGT 
- -t 26.566809209 -s 1 -d -1 -p cbr -e 512 -c 2 -a 0 -i 6 -k AGT
h -t 26.566809209 -s 1 -d -1 -p cbr -e 512 -c 2 -a 0 -i 6 -k AGT
+ -t 26.566809209 -s 1 -d 2 -p cbr -e 532 -c 2 -a 0 -i 6 -k RTR 
- -t 26.566809209 -s 1 -d 2 -p cbr -e 532 -c 2 -a 0 -i 6 -k RTR
h -t 26.566809209 -s 1 -d 2 -p cbr -e 532 -c 2 -a 0 -i 6 -k RTR
+ -t 26.567304209 -s 1 -d -1 -p RTS -e 44 -c 2 -a 0 -i 0 -k MAC 
- -t 26.567304209 -s 1 -d -1 -p RTS -e 44 -c 2 -a 0 -i 0 -k MAC
h -t 26.567304209 -s 1 -d -1 -p RTS -e 44 -c 2 -a 0 -i 0 -k MAC
r -t 26.567656507 -s 2 -d -1 -p RTS -e 44 -c 2 -a 0 -i 0 -k MAC
+ -t 26.567666507 -s 2 -d -1 -p CTS -e 38 -c 2 -a 0 -i 0 -k MAC 
- -t 26.567666507 -s 2 -d -1 -p CTS -e 38 -c 2 -a 0 -i 0 -k MAC
h -t 26.567666507 -s 2 -d -1 -p CTS -e 38 -c 2 -a 0 -i 0 -k MAC
r -t 26.567970805 -s 1 -d -1 -p CTS -e 38 -c 2 -a 0 -i 0 -k MAC
+ -t 26.567980805 -s 1 -d 2 -p cbr -e 590 -c 2 -a 0 -i 6 -k MAC 
- -t 26.567980805 -s 1 -d 2 -p cbr -e 590 -c 2 -a 0 -i 6 -k MAC
h -t 26.567980805 -s 1 -d 2 -p cbr -e 590 -c 2 -a 0 -i 6 -k MAC
r -t 26.572701102 -s 2 -d 2 -p cbr -e 532 -c 2 -a 0 -i 6 -k MAC
+ -t 26.572711102 -s 2 -d -1 -p ACK -e 38 -c 2 -a 0 -i 0 -k MAC 
- -t 26.572711102 -s 2 -d -1 -p ACK -e 38 -c 2 -a 0 -i 0 -k MAC
h -t 26.572711102 -s 2 -d -1 -p ACK -e 38 -c 2 -a 0 -i 0 -k MAC
r -t 26.572726102 -s 2 -d 2 -p cbr -e 512 -c 2 -a 0 -i 6 -k AGT
r -t 26.573015400 -s 1 -d -1 -p ACK -e 38 -c 2 -a 0 -i 0 -k MAC
+ -t 26.854615063 -s 1 -d -1 -p cbr -e 512 -c 2 -a 0 -i 7 -k AGT 
- -t 26.854615063 -s 1 -d -1 -p cbr -e 512 -c 2 -a 0 -i 7 -k AGT
h -t 26.854615063 -s 1 -d -1 -p cbr -e 512 -c 2 -a 0 -i 7 -k AGT
+ -t 26.854615063 -s 1 -d 2 -p cbr -e 532 -c 2 -a 0 -i 7 -k RTR 
- -t 26.854615063 -s 1 -d 2 -p cbr -e 532 -c 2 -a 0 -i 7 -k RTR
h -t 26.854615063 -s 1 -d 2 -p cbr -e 532 -c 2 -a 0 -i 7 -k RTR
+ -t 26.855130063 -s 1 -d -1 -p RTS -e 44 -c 2 -a 0 -i 0 -k MAC 
- -t 26.855130063 -s 1 -d -1 -p RTS -e 44 -c 2 -a 0 -i 0 -k MAC
h -t 26.855130063 -s 1 -d -1 -p RTS -e 44 -c 2 -a 0 -i 0 -k MAC
r -t 26.855482361 -s 2 -d -1 -p RTS -e 44 -c 2 -a 0 -i 0 -k MAC
+ -t 26.855492361 -s 2 -d -1 -p CTS -e 38 -c 2 -a 0 -i 0 -k MAC 
- -t 26.855492361 -s 2 -d -1 -p CTS -e 38 -c 2 -a 0 -i 0 -k MAC
h -t 26.855492361 -s 2 -d -1 -p CTS -e 38 -c 2 -a 0 -i 0 -k MAC
r -t 26.855796659 -s 1 -d -1 -p CTS -e 38 -c 2 -a 0 -i 0 -k MAC
+ -t 26.855806659 -s 1 -d 2 -p cbr -e 590 -c 2 -a 0 -i 7 -k MAC 
- -t 26.855806659 -s 1 -d 2 -p cbr -e 590 -c 2 -a 0 -i 7 -k MAC
h -t 26.855806659 -s 1 -d 2 -p cbr -e 590 -c 2 -a 0 -i 7 -k MAC
r -t 26.860526958 -s 2 -d 2 -p cbr -e 532 -c 2 -a 0 -i 7 -k MAC
+ -t 26.860536958 -s 2 -d -1 -p ACK -e 38 -c 2 -a 0 -i 0 -k MAC 
- -t 26.860536958 -s 2 -d -1 -p ACK -e 38 -c 2 -a 0 -i 0 -k MAC
h -t 26.860536958 -s 2 -d -1 -p ACK -e 38 -c 2 -a 0 -i 0 -k MAC
r -t 26.860551958 -s 2 -d 2 -p cbr -e 512 -c 2 -a 0 -i 7 -k AGT
r -t 26.860841256 -s 1 -d -1 -p ACK -e 38 -c 2 -a 0 -i 0 -k MAC
+ -t 27.104433842 -s 1 -d -1 -p cbr -e 512 -c 2 -a 0 -i 8 -k AGT 
- -t 27.104433842 -s 1 -d -1 -p cbr -e 512 -c 2 -a 0 -i 8 -k AGT
h -t 27.104433842 -s 1 -d -1 -p cbr -e 512 -c 2 -a 0 -i 8 -k AGT
+ -t 27.104433842 -s 1 -d 2 -p cbr -e 532 -c 2 -a 0 -i 8 -k RTR 
- -t 27.104433842 -s 1 -d 2 -p cbr -e 532 -c 2 -a 0 -i 8 -k RTR
h -t 27.104433842 -s 1 -d 2 -p cbr -e 532 -c 2 -a 0 -i 8 -k RTR
+ -t 27.104868842 -s 1 -d -1 -p RTS -e 44 -c 2 -a 0 -i 0 -k MAC 
- -t 27.104868842 -s 1 -d -1 -p RTS -e 44 -c 2 -a 0 -i 0 -k MAC
h -t 27.104868842 -s 1 -d -1 -p RTS -e 44 -c 2 -a 0 -i 0 -k MAC
r -t 27.105221141 -s 2 -d -1 -p RTS -e 44 -c 2 -a 0 -i 0 -k MAC
+ -t 27.105231141 -s 2 -d -1 -p CTS -e 38 -c 2 -a 0 -i 0 -k MAC 
- -t 27.105231141 -s 2 -d -1 -p CTS -e 38 -c 2 -a 0 -i 0 -k MAC
h -t 27.105231141 -s 2 -d -1 -p CTS -e 38 -c 2 -a 0 -i 0 -k MAC
r -t 27.105535439 -s 1 -d -1 -p CTS -e 38 -c 2 -a 0 -i 0 -k MAC
+ -t 27.105545439 -s 1 -d 2 -p cbr -e 590 -c 2 -a 0 -i 8 -k MAC 
- -t 27.105545439 -s 1 -d 2 -p cbr -e 590 -c 2 -a 0 -i 8 -k MAC
h -t 27.105545439 -s 1 -d 2 -p cbr -e 590 -c 2 -a 0 -i 8 -k MAC
r -t 27.110265737 -s 2 -d 2 -p cbr -e 532 -c 2 -a 0 -i 8 -k MAC
+ -t 27.110275737 -s 2 -d -1 -p ACK -e 38 -c 2 -a 0 -i 0 -k MAC 
- -t 27.110275737 -s 2 -d -1 -p ACK -e 38 -c 2 -a 0 -i 0 -k MAC
h -t 27.110275737 -s 2 -d -1 -p ACK -e 38 -c 2 -a 0 -i 0 -k MAC
r -t 27.110290737 -s 2 -d 2 -p cbr -e 512 -c 2 -a 0 -i 8 -k AGT
r -t 27.110580036 -s 1 -d -1 -p ACK -e 38 -c 2 -a 0 -i 0 -k MAC
+ -t 27.330329101 -s 1 -d -1 -p cbr -e 512 -c 2 -a 0 -i 9 -k AGT 
- -t 27.330329101 -s 1 -d -1 -p cbr -e 512 -c 2 -a 0 -i 9 -k AGT
h -t 27.330329101 -s 1 -d -1 -p cbr -e 512 -c 2 -a 0 -i 9 -k AGT
+ -t 27.330329101 -s 1 -d 2 -p cbr -e 532 -c 2 -a 0 -i 9 -k RTR 
- -t 27.330329101 -s 1 -d 2 -p cbr -e 532 -c 2 -a 0 -i 9 -k RTR
h -t 27.330329101 -s 1 -d 2 -p cbr -e 532 -c 2 -a 0 -i 9 -k RTR
+ -t 27.330644101 -s 1 -d -1 -p RTS -e 44 -c 2 -a 0 -i 0 -k MAC 
- -t 27.330644101 -s 1 -d -1 -p RTS -e 44 -c 2 -a 0 -i 0 -k MAC
h -t 27.330644101 -s 1 -d -1 -p RTS -e 44 -c 2 -a 0 -i 0 -k MAC
r -t 27.330996400 -s 2 -d -1 -p RTS -e 44 -c 2 -a 0 -i 0 -k MAC
+ -t 27.331006400 -s 2 -d -1 -p CTS -e 38 -c 2 -a 0 -i 0 -k MAC 
- -t 27.331006400 -s 2 -d -1 -p CTS -e 38 -c 2 -a 0 -i 0 -k MAC
h -t 27.331006400 -s 2 -d -1 -p CTS -e 38 -c 2 -a 0 -i 0 -k MAC
r -t 27.331310699 -s 1 -d -1 -p CTS -e 38 -c 2 -a 0 -i 0 -k MAC
+ -t 27.331320699 -s 1 -d 2 -p cbr -e 590 -c 2 -a 0 -i 9 -k MAC 
- -t 27.331320699 -s 1 -d 2 -p cbr -e 590 -c 2 -a 0 -i 9 -k MAC
h -t 27.331320699 -s 1 -d 2 -p cbr -e 590 -c 2 -a 0 -i 9 -k MAC
r -t 27.336040998 -s 2 -d 2 -p cbr -e 532 -c 2 -a 0 -i 9 -k MAC
+ -t 27.336050998 -s 2 -d -1 -p ACK -e 38 -c 2 -a 0 -i 0 -k MAC 
- -t 27.336050998 -s 2 -d -1 -p ACK -e 38 -c 2 -a 0 -i 0 -k MAC
h -t 27.336050998 -s 2 -d -1 -p ACK -e 38 -c 2 -a 0 -i 0 -k MAC
r -t 27.336065998 -s 2 -d 2 -p cbr -e 512 -c 2 -a 0 -i 9 -k AGT
r -t 27.336355297 -s 1 -d -1 -p ACK -e 38 -c 2 -a 0 -i 0 -k MAC
+ -t 27.565905292 -s 1 -d -1 -p cbr -e 512 -c 2 -a 0 -i 10 -k AGT 
- -t 27.565905292 -s 1 -d -1 -p cbr -e 512 -c 2 -a 0 -i 10 -k AGT
h -t 27.565905292 -s 1 -d -1 -p cbr -e 512 -c 2 -a 0 -i 10 -k AGT
+ -t 27.565905292 -s 1 -d 2 -p cbr -e 532 -c 2 -a 0 -i 10 -k RTR 
- -t 27.565905292 -s 1 -d 2 -p cbr -e 532 -c 2 -a 0 -i 10 -k RTR
h -t 27.565905292 -s 1 -d 2 -p cbr -e 532 -c 2 -a 0 -i 10 -k RTR
+ -t 27.566560292 -s 1 -d -1 -p RTS -e 44 -c 2 -a 0 -i 0 -k MAC 
- -t 27.566560292 -s 1 -d -1 -p RTS -e 44 -c 2 -a 0 -i 0 -k MAC
h -t 27.566560292 -s 1 -d -1 -p RTS -e 44 -c 2 -a 0 -i 0 -k MAC
r -t 27.566912591 -s 2 -d -1 -p RTS -e 44 -c 2 -a 0 -i 0 -k MAC
+ -t 27.566922591 -s 2 -d -1 -p CTS -e 38 -c 2 -a 0 -i 0 -k MAC 
- -t 27.566922591 -s 2 -d -1 -p CTS -e 38 -c 2 -a 0 -i 0 -k MAC
h -t 27.566922591 -s 2 -d -1 -p CTS -e 38 -c 2 -a 0 -i 0 -k MAC
r -t 27.567226890 -s 1 -d -1 -p CTS -e 38 -c 2 -a 0 -i 0 -k MAC
+ -t 27.567236890 -s 1 -d 2 -p cbr -e 590 -c 2 -a 0 -i 10 -k MAC 
- -t 27.567236890 -s 1 -d 2 -p cbr -e 590 -c 2 -a 0 -i 10 -k MAC
h -t 27.567236890 -s 1 -d 2 -p cbr -e 590 -c 2 -a 0 -i 10 -k MAC
r -t 27.571957189 -s 2 -d 2 -p cbr -e 532 -c 2 -a 0 -i 10 -k MAC
+ -t 27.571967189 -s 2 -d -1 -p ACK -e 38 -c 2 -a 0 -i 0 -k MAC 
- -t 27.571967189 -s 2 -d -1 -p ACK -e 38 -c 2 -a 0 -i 0 -k MAC
h -t 27.571967189 -s 2 -d -1 -p ACK -e 38 -c 2 -a 0 -i 0 -k MAC
r -t 27.571982189 -s 2 -d 2 -p cbr -e 512 -c 2 -a 0 -i 10 -k AGT
r -t 27.572271488 -s 1 -d -1 -p ACK -e 38 -c 2 -a 0 -i 0 -k MAC
+ -t 27.710278297 -s 1 -d -1 -p cbr -e 512 -c 2 -a 0 -i 11 -k AGT 
- -t 27.710278297 -s 1 -d -1 -p cbr -e 512 -c 2 -a 0 -i 11 -k AGT
h -t 27.710278297 -s 1 -d -1 -p cbr -e 512 -c 2 -a 0 -i 11 -k AGT
+ -t 27.710278297 -s 1 -d 2 -p cbr -e 532 -c 2 -a 0 -i 11 -k RTR 
- -t 27.710278297 -s 1 -d 2 -p cbr -e 532 -c 2 -a 0 -i 11 -k RTR
h -t 27.710278297 -s 1 -d 2 -p cbr -e 532 -c 2 -a 0 -i 11 -k RTR
+ -t 27.710733297 -s 1 -d -1 -p RTS -e 44 -c 2 -a 0 -i 0 -k MAC 
- -t 27.710733297 -s 1 -d -1 -p RTS -e 44 -c 2 -a 0 -i 0 -k MAC
h -t 27.710733297 -s 1 -d -1 -p RTS -e 44 -c 2 -a 0 -i 0 -k MAC
r -t 27.711085596 -s 2 -d -1 -p RTS -e 44 -c 2 -a 0 -i 0 -k MAC
+ -t 27.711095596 -s 2 -d -1 -p CTS -e 38 -c 2 -a 0 -i 0 -k MAC 
- -t 27.711095596 -s 2 -d -1 -p CTS -e 38 -c 2 -a 0 -i 0 -k MAC
h -t 27.711095596 -s 2 -d -1 -p CTS -e 38 -c 2 -a 0 -i 0 -k MAC
r -t 27.711399896 -s 1 -d -1 -p CTS -e 38 -c 2 -a 0 -i 0 -k MAC
+ -t 27.711409896 -s 1 -d 2 -p cbr -e 590 -c 2 -a 0 -i 11 -k MAC 
- -t 27.711409896 -s 1 -d 2 -p cbr -e 590 -c 2 -a 0 -i 11 -k MAC
h -t 27.711409896 -s 1 -d 2 -p cbr -e 590 -c 2 -a 0 -i 11 -k MAC
r -t 27.716130195 -s 2 -d 2 -p cbr -e 532 -c 2 -a 0 -i 11 -k MAC
+ -t 27.716140195 -s 2 -d -1 -p ACK -e 38 -c 2 -a 0 -i 0 -k MAC 
- -t 27.716140195 -s 2 -d -1 -p ACK -e 38 -c 2 -a 0 -i 0 -k MAC
h -t 27.716140195 -s 2 -d -1 -p ACK -e 38 -c 2 -a 0 -i 0 -k MAC
r -t 27.716155195 -s 2 -d 2 -p cbr -e 512 -c 2 -a 0 -i 11 -k AGT
r -t 27.716444494 -s 1 -d -1 -p ACK -e 38 -c 2 -a 0 -i 0 -k MAC
+ -t 27.963221993 -s 1 -d -1 -p cbr -e 512 -c 2 -a 0 -i 12 -k AGT 
- -t 27.963221993 -s 1 -d -1 -p cbr -e 512 -c 2 -a 0 -i 12 -k AGT
h -t 27.963221993 -s 1 -d -1 -p cbr -e 512 -c 2 -a 0 -i 12 -k AGT
+ -t 27.963221993 -s 1 -d 2 -p cbr -e 532 -c 2 -a 0 -i 12 -k RTR 
- -t 27.963221993 -s 1 -d 2 -p cbr -e 532 -c 2 -a 0 -i 12 -k RTR
h -t 27.963221993 -s 1 -d 2 -p cbr -e 532 -c 2 -a 0 -i 12 -k RTR
+ -t 27.963796993 -s 1 -d -1 -p RTS -e 44 -c 2 -a 0 -i 0 -k MAC 
- -t 27.963796993 -s 1 -d -1 -p RTS -e 44 -c 2 -a 0 -i 0 -k MAC
h -t 27.963796993 -s 1 -d -1 -p RTS -e 44 -c 2 -a 0 -i 0 -k MAC
r -t 27.964149293 -s 2 -d -1 -p RTS -e 44 -c 2 -a 0 -i 0 -k MAC
+ -t 27.964159293 -s 2 -d -1 -p CTS -e 38 -c 2 -a 0 -i 0 -k MAC 
- -t 27.964159293 -s 2 -d -1 -p CTS -e 38 -c 2 -a 0 -i 0 -k MAC
h -t 27.964159293 -s 2 -d -1 -p CTS -e 38 -c 2 -a 0 -i 0 -k MAC
r -t 27.964463592 -s 1 -d -1 -p CTS -e 38 -c 2 -a 0 -i 0 -k MAC
+ -t 27.964473592 -s 1 -d 2 -p cbr -e 590 -c 2 -a 0 -i 12 -k MAC 
- -t 27.964473592 -s 1 -d 2 -p cbr -e 590 -c 2 -a 0 -i 12 -k MAC
h -t 27.964473592 -s 1 -d 2 -p cbr -e 590 -c 2 -a 0 -i 12 -k MAC
r -t 27.969193892 -s 2 -d 2 -p cbr -e 532 -c 2 -a 0 -i 12 -k MAC
+ -t 27.969203892 -s 2 -d -1 -p ACK -e 38 -c 2 -a 0 -i 0 -k MAC 
- -t 27.969203892 -s 2 -d -1 -p ACK -e 38 -c 2 -a 0 -i 0 -k MAC
h -t 27.969203892 -s 2 -d -1 -p ACK -e 38 -c 2 -a 0 -i 0 -k MAC
r -t 27.969218892 -s 2 -d 2 -p cbr -e 512 -c 2 -a 0 -i 12 -k AGT
r -t 27.969508192 -s 1 -d -1 -p ACK -e 38 -c 2 -a 0 -i 0 -k MAC
+ -t 28.249094219 -s 1 -d -1 -p cbr -e 512 -c 2 -a 0 -i 13 -k AGT 
- -t 28.249094219 -s 1 -d -1 -p cbr -e 512 -c 2 -a 0 -i 13 -k AGT
h -t 28.249094219 -s 1 -d -1 -p cbr -e 512 -c 2 -a 0 -i 13 -k AGT
+ -t 28.249094219 -s 1 -d 2 -p cbr -e 532 -c 2 -a 0 -i 13 -k RTR 
- -t 28.249094219 -s 1 -d 2 -p cbr -e 532 -c 2 -a 0 -i 13 -k RTR
h -t 28.249094219 -s 1 -d 2 -p cbr -e 532 -c 2 -a 0 -i 13 -k RTR
+ -t 28.249449219 -s 1 -d -1 -p RTS -e 44 -c 2 -a 0 -i 0 -k MAC 
- -t 28.249449219 -s 1 -d -1 -p RTS -e 44 -c 2 -a 0 -i 0 -k MAC
h -t 28.249449219 -s 1 -d -1 -p RTS -e 44 -c 2 -a 0 -i 0 -k MAC
r -t 28.249801519 -s 2 -d -1 -p RTS -e 44 -c 2 -a 0 -i 0 -k MAC
+ -t 28.249811519 -s 2 -d -1 -p CTS -e 38 -c 2 -a 0 -i 0 -k MAC 
- -t 28.249811519 -s 2 -d -1 -p CTS -e 38 -c 2 -a 0 -i 0 -k MAC
h -t 28.249811519 -s 2 -d -1 -p CTS -e 38 -c 2 -a 0 -i 0 -k MAC
r -t 28.250115819 -s 1 -d -1 -p CTS -e 38 -c 2 -a 0 -i 0 -k MAC
+ -t 28.250125819 -s 1 -d 2 -p cbr -e 590 -c 2 -a 0 -i 13 -k MAC 
- -t 28.250125819 -s 1 -d 2 -p cbr -e 590 -c 2 -a 0 -i 13 -k MAC
h -t 28.250125819 -s 1 -d 2 -p cbr -e 590 -c 2 -a 0 -i 13 -k MAC
r -t 28.254846119 -s 2 -d 2 -p cbr -e 532 -c 2 -a 0 -i 13 -k MAC
+ -t 28.254856119 -s 2 -d -1 -p ACK -e 38 -c 2 -a 0 -i 0 -k MAC 
- -t 28.254856119 -s 2 -d -1 -p ACK -e 38 -c 2 -a 0 -i 0 -k MAC
h -t 28.254856119 -s 2 -d -1 -p ACK -e 38 -c 2 -a 0 -i 0 -k MAC
r -t 28.254871119 -s 2 -d 2 -p cbr -e 512 -c 2 -a 0 -i 13 -k AGT
r -t 28.255160419 -s 1 -d -1 -p ACK -e 38 -c 2 -a 0 -i 0 -k MAC
+ -t 28.383274471 -s 1 -d -1 -p cbr -e 512 -c 2 -a 0 -i 14 -k AGT 
- -t 28.383274471 -s 1 -d -1 -p cbr -e 512 -c 2 -a 0 -i 14 -k AGT
h -t 28.383274471 -s 1 -d -1 -p cbr -e 512 -c 2 -a 0 -i 14 -k AGT
+ -t 28.383274471 -s 1 -d 2 -p cbr -e 532 -c 2 -a 0 -i 14 -k RTR 
- -t 28.383274471 -s 1 -d 2 -p cbr -e 532 -c 2 -a 0 -i 14 -k RTR
h -t 28.383274471 -s 1 -d 2 -p cbr -e 532 -c 2 -a 0 -i 14 -k RTR
+ -t 28.383929471 -s 1 -d -1 -p RTS -e 44 -c 2 -a 0 -i 0 -k MAC 
- -t 28.383929471 -s 1 -d -1 -p RTS -e 44 -c 2 -a 0 -i 0 -k MAC
h -t 28.383929471 -s 1 -d -1 -p RTS -e 44 -c 2 -a 0 -i 0 -k MAC
r -t 28.384281771 -s 2 -d -1 -p RTS -e 44 -c 2 -a 0 -i 0 -k MAC
+ -t 28.384291771 -s 2 -d -1 -p CTS -e 38 -c 2 -a 0 -i 0 -k MAC 
- -t 28.384291771 -s 2 -d -1 -p CTS -e 38 -c 2 -a 0 -i 0 -k MAC
h -t 28.384291771 -s 2 -d -1 -p CTS -e 38 -c 2 -a 0 -i 0 -k MAC
r -t 28.384596071 -s 1 -d -1 -p CTS -e 38 -c 2 -a 0 -i 0 -k MAC
+ -t 28.384606071 -s 1 -d 2 -p cbr -e 590 -c 2 -a 0 -i 14 -k MAC 
- -t 28.384606071 -s 1 -d 2 -p cbr -e 590 -c 2 -a 0 -i 14 -k MAC
h -t 28.384606071 -s 1 -d 2 -p cbr -e 590 -c 2 -a 0 -i 14 -k MAC
r -t 28.389326372 -s 2 -d 2 -p cbr -e 532 -c 2 -a 0 -i 14 -k MAC
+ -t 28.389336372 -s 2 -d -1 -p ACK -e 38 -c 2 -a 0 -i 0 -k MAC 
- -t 28.389336372 -s 2 -d -1 -p ACK -e 38 -c 2 -a 0 -i 0 -k MAC
h -t 28.389336372 -s 2 -d -1 -p ACK -e 38 -c 2 -a 0 -i 0 -k MAC
r -t 28.389351372 -s 2 -d 2 -p cbr -e 512 -c 2 -a 0 -i 14 -k AGT
r -t 28.389640672 -s 1 -d -1 -p ACK -e 38 -c 2 -a 0 -i 0 -k MAC
+ -t 28.552442201 -s 1 -d -1 -p cbr -e 512 -c 2 -a 0 -i 15 -k AGT 
- -t 28.552442201 -s 1 -d -1 -p cbr -e 512 -c 2 -a 0 -i 15 -k AGT
h -t 28.552442201 -s 1 -d -1 -p cbr -e 512 -c 2 -a 0 -i 15 -k AGT
+ -t 28.552442201 -s 1 -d 2 -p cbr -e 532 -c 2 -a 0 -i 15 -k RTR 
- -t 28.552442201 -s 1 -d 2 -p cbr -e 532 -c 2 -a 0 -i 15 -k RTR
h -t 28.552442201 -s 1 -d 2 -p cbr -e 532 -c 2 -a 0 -i 15 -k RTR
+ -t 28.552677201 -s 1 -d -1 -p RTS -e 44 -c 2 -a 0 -i 0 -k MAC 
- -t 28.552677201 -s 1 -d -1 -p RTS -e 44 -c 2 -a 0 -i 0 -k MAC
h -t 28.552677201 -s 1 -d -1 -p RTS -e 44 -c 2 -a 0 -i 0 -k MAC
r -t 28.553029501 -s 2 -d -1 -p RTS -e 44 -c 2 -a 0 -i 0 -k MAC
+ -t 28.553039501 -s 2 -d -1 -p CTS -e 38 -c 2 -a 0 -i 0 -k MAC 
- -t 28.553039501 -s 2 -d -1 -p CTS -e 38 -c 2 -a 0 -i 0 -k MAC
h -t 28.553039501 -s 2 -d -1 -p CTS -e 38 -c 2 -a 0 -i 0 -k MAC
r -t 28.553343802 -s 1 -d -1 -p CTS -e 38 -c 2 -a 0 -i 0 -k MAC
+ -t 28.553353802 -s 1 -d 2 -p cbr -e 590 -c 2 -a 0 -i 15 -k MAC 
- -t 28.553353802 -s 1 -d 2 -p cbr -e 590 -c 2 -a 0 -i 15 -k MAC
h -t 28.553353802 -s 1 -d 2 -p cbr -e 590 -c 2 -a 0 -i 15 -k MAC
r -t 28.558074103 -s 2 -d 2 -p cbr -e 532 -c 2 -a 0 -i 15 -k MAC
+ -t 28.558084103 -s 2 -d -1 -p ACK -e 38 -c 2 -a 0 -i 0 -k MAC 
- -t 28.558084103 -s 2 -d -1 -p ACK -e 38 -c 2 -a 0 -i 0 -k MAC
h -t 28.558084103 -s 2 -d -1 -p ACK -e 38 -c 2 -a 0 -i 0 -k MAC
r -t 28.558099103 -s 2 -d 2 -p cbr -e 512 -c 2 -a 0 -i 15 -k AGT
r -t 28.558388403 -s 1 -d -1 -p ACK -e 38 -c 2 -a 0 -i 0 -k MAC
+ -t 28.900035318 -s 1 -d -1 -p cbr -e 512 -c 2 -a 0 -i 16 -k AGT 
- -t 28.900035318 -s 1 -d -1 -p cbr -e 512 -c 2 -a 0 -i 16 -k AGT
h -t 28.900035318 -s 1 -d -1 -p cbr -e 512 -c 2 -a 0 -i 16 -k AGT
+ -t 28.900035318 -s 1 -d 2 -p cbr -e 532 -c 2 -a 0 -i 16 -k RTR 
- -t 28.900035318 -s 1 -d 2 -p cbr -e 532 -c 2 -a 0 -i 16 -k RTR
h -t 28.900035318 -s 1 -d 2 -p cbr -e 532 -c 2 -a 0 -i 16 -k RTR
+ -t 28.900590318 -s 1 -d -1 -p RTS -e 44 -c 2 -a 0 -i 0 -k MAC 
- -t 28.900590318 -s 1 -d -1 -p RTS -e 44 -c 2 -a 0 -i 0 -k MAC
h -t 28.900590318 -s 1 -d -1 -p RTS -e 44 -c 2 -a 0 -i 0 -k MAC
r -t 28.900942619 -s 2 -d -1 -p RTS -e 44 -c 2 -a 0 -i 0 -k MAC
+ -t 28.900952619 -s 2 -d -1 -p CTS -e 38 -c 2 -a 0 -i 0 -k MAC 
- -t 28.900952619 -s 2 -d -1 -p CTS -e 38 -c 2 -a 0 -i 0 -k MAC
h -t 28.900952619 -s 2 -d -1 -p CTS -e 38 -c 2 -a 0 -i 0 -k MAC
r -t 28.901256920 -s 1 -d -1 -p CTS -e 38 -c 2 -a 0 -i 0 -k MAC
+ -t 28.901266920 -s 1 -d 2 -p cbr -e 590 -c 2 -a 0 -i 16 -k MAC 
- -t 28.901266920 -s 1 -d 2 -p cbr -e 590 -c 2 -a 0 -i 16 -k MAC
h -t 28.901266920 -s 1 -d 2 -p cbr -e 590 -c 2 -a 0 -i 16 -k MAC
r -t 28.905987221 -s 2 -d 2 -p cbr -e 532 -c 2 -a 0 -i 16 -k MAC
+ -t 28.905997221 -s 2 -d -1 -p ACK -e 38 -c 2 -a 0 -i 0 -k MAC 
- -t 28.905997221 -s 2 -d -1 -p ACK -e 38 -c 2 -a 0 -i 0 -k MAC
h -t 28.905997221 -s 2 -d -1 -p ACK -e 38 -c 2 -a 0 -i 0 -k MAC
r -t 28.906012221 -s 2 -d 2 -p cbr -e 512 -c 2 -a 0 -i 16 -k AGT
r -t 28.906301522 -s 1 -d -1 -p ACK -e 38 -c 2 -a 0 -i 0 -k MAC
+ -t 29.142752401 -s 1 -d -1 -p cbr -e 512 -c 2 -a 0 -i 17 -k AGT 
- -t 29.142752401 -s 1 -d -1 -p cbr -e 512 -c 2 -a 0 -i 17 -k AGT
h -t 29.142752401 -s 1 -d -1 -p cbr -e 512 -c 2 -a 0 -i 17 -k AGT
+ -t 29.142752401 -s 1 -d 2 -p cbr -e 532 -c 2 -a 0 -i 17 -k RTR 
- -t 29.142752401 -s 1 -d 2 -p cbr -e 532 -c 2 -a 0 -i 17 -k RTR
h -t 29.142752401 -s 1 -d 2 -p cbr -e 532 -c 2 -a 0 -i 17 -k RTR
+ -t 29.143287401 -s 1 -d -1 -p RTS -e 44 -c 2 -a 0 -i 0 -k MAC 
- -t 29.143287401 -s 1 -d -1 -p RTS -e 44 -c 2 -a 0 -i 0 -k MAC
h -t 29.143287401 -s 1 -d -1 -p RTS -e 44 -c 2 -a 0 -i 0 -k MAC
r -t 29.143639702 -s 2 -d -1 -p RTS -e 44 -c 2 -a 0 -i 0 -k MAC
+ -t 29.143649702 -s 2 -d -1 -p CTS -e 38 -c 2 -a 0 -i 0 -k MAC 
- -t 29.143649702 -s 2 -d -1 -p CTS -e 38 -c 2 -a 0 -i 0 -k MAC
h -t 29.143649702 -s 2 -d -1 -p CTS -e 38 -c 2 -a 0 -i 0 -k MAC
r -t 29.143954003 -s 1 -d -1 -p CTS -e 38 -c 2 -a 0 -i 0 -k MAC
+ -t 29.143964003 -s 1 -d 2 -p cbr -e 590 -c 2 -a 0 -i 17 -k MAC 
- -t 29.143964003 -s 1 -d 2 -p cbr -e 590 -c 2 -a 0 -i 17 -k MAC
h -t 29.143964003 -s 1 -d 2 -p cbr -e 590 -c 2 -a 0 -i 17 -k MAC
r -t 29.148684305 -s 2 -d 2 -p cbr -e 532 -c 2 -a 0 -i 17 -k MAC
+ -t 29.148694305 -s 2 -d -1 -p ACK -e 38 -c 2 -a 0 -i 0 -k MAC 
- -t 29.148694305 -s 2 -d -1 -p ACK -e 38 -c 2 -a 0 -i 0 -k MAC
h -t 29.148694305 -s 2 -d -1 -p ACK -e 38 -c 2 -a 0 -i 0 -k MAC
r -t 29.148709305 -s 2 -d 2 -p cbr -e 512 -c 2 -a 0 -i 17 -k AGT
r -t 29.148998606 -s 1 -d -1 -p ACK -e 38 -c 2 -a 0 -i 0 -k MAC
+ -t 29.487142318 -s 1 -d -1 -p cbr -e 512 -c 2 -a 0 -i 18 -k AGT 
- -t 29.487142318 -s 1 -d -1 -p cbr -e 512 -c 2 -a 0 -i 18 -k AGT
h -t 29.487142318 -s 1 -d -1 -p cbr -e 512 -c 2 -a 0 -i 18 -k AGT
+ -t 29.487142318 -s 1 -d 2 -p cbr -e 532 -c 2 -a 0 -i 18 -k RTR 
- -t 29.487142318 -s 1 -d 2 -p cbr -e 532 -c 2 -a 0 -i 18 -k RTR
h -t 29.487142318 -s 1 -d 2 -p cbr -e 532 -c 2 -a 0 -i 18 -k RTR
+ -t 29.487297318 -s 1 -d -1 -p RTS -e 44 -c 2 -a 0 -i 0 -k MAC 
- -t 29.487297318 -s 1 -d -1 -p RTS -e 44 -c 2 -a 0 -i 0 -k MAC
h -t 29.487297318 -s 1 -d -1 -p RTS -e 44 -c 2 -a 0 -i 0 -k MAC
r -t 29.487649620 -s 2 -d -1 -p RTS -e 44 -c 2 -a 0 -i 0 -k MAC
+ -t 29.487659620 -s 2 -d -1 -p CTS -e 38 -c 2 -a 0 -i 0 -k MAC 
- -t 29.487659620 -s 2 -d -1 -p CTS -e 38 -c 2 -a 0 -i 0 -k MAC
h -t 29.487659620 -s 2 -d -1 -p CTS -e 38 -c 2 -a 0 -i 0 -k MAC
r -t 29.487963922 -s 1 -d -1 -p CTS -e 38 -c 2 -a 0 -i 0 -k MAC
+ -t 29.487973922 -s 1 -d 2 -p cbr -e 590 -c 2 -a 0 -i 18 -k MAC 
- -t 29.487973922 -s 1 -d 2 -p cbr -e 590 -c 2 -a 0 -i 18 -k MAC
h -t 29.487973922 -s 1 -d 2 -p cbr -e 590 -c 2 -a 0 -i 18 -k MAC
r -t 29.492694224 -s 2 -d 2 -p cbr -e 532 -c 2 -a 0 -i 18 -k MAC
+ -t 29.492704224 -s 2 -d -1 -p ACK -e 38 -c 2 -a 0 -i 0 -k MAC 
- -t 29.492704224 -s 2 -d -1 -p ACK -e 38 -c 2 -a 0 -i 0 -k MAC
h -t 29.492704224 -s 2 -d -1 -p ACK -e 38 -c 2 -a 0 -i 0 -k MAC
r -t 29.492719224 -s 2 -d 2 -p cbr -e 512 -c 2 -a 0 -i 18 -k AGT