M 0.00000 0 (15.00, 15.00, 0.00), (50.00, 50.00), 10.00
M 0.00000 1 (150.00, 150.00, 0.00), (150.00, 150.00), 0.00
s 0.500095000 _0_ MAC  --- 0 ARP 86 [0 ffffffff 0 806] ------- [REQUEST 0/0 0/1]
r 0.500783620 _1_ MAC  --- 0 ARP 28 [0 ffffffff 0 806] ------- [REQUEST 0/0 0/1]
s 0.501138620 _1_ MAC  --- 0 RTS 44 [52e 0 1 0] 
r 0.501491239 _0_ MAC  --- 0 RTS 44 [52e 0 1 0] 
s 0.501501239 _0_ MAC  --- 0 CTS 38 [3f4 1 0 0] 
r 0.501805859 _1_ MAC  --- 0 CTS 38 [3f4 1 0 0] 
s 0.501815859 _1_ MAC  --- 0 ARP 86 [13a 0 1 806] ------- [REPLY 1/1 0/0]
r 0.502504479 _0_ MAC  --- 0 ARP 28 [13a 0 1 806] ------- [REPLY 1/1 0/0]
s 0.502514479 _0_ MAC  --- 0 ACK 38 [0 1 0 0] 
r 0.502819098 _1_ MAC  --- 0 ACK 38 [0 1 0 0] 
s 0.503128479 _0_ MAC  --- 0 RTS 44 [58e 1 0 0] 
r 0.503481098 _1_ MAC  --- 0 RTS 44 [58e 1 0 0] 
s 0.503491098 _1_ MAC  --- 0 CTS 38 [454 0 0 0] 
r 0.503795718 _0_ MAC  --- 0 CTS 38 [454 0 0 0] 
s 0.503805718 _0_ MAC  --- 0 tcp 98 [13a 1 0 800] ------- [0:0 1:0 32 0] [0 0] 0 0
r 0.504590338 _1_ MAC  --- 0 tcp 40 [13a 1 0 800] ------- [0:0 1:0 32 0] [0 0] 1 0
s 0.504600338 _1_ MAC  --- 0 ACK 38 [0 0 0 0] 
r 0.504904957 _0_ MAC  --- 0 ACK 38 [0 0 0 0] 
s 0.505034338 _1_ MAC  --- 0 RTS 44 [58e 0 1 0] 
r 0.505386957 _0_ MAC  --- 0 RTS 44 [58e 0 1 0] 
s 0.505396957 _0_ MAC  --- 0 CTS 38 [454 1 0 0] 
r 0.505701577 _1_ MAC  --- 0 CTS 38 [454 1 0 0] 
s 0.505711577 _1_ MAC  --- 1 ack 98 [13a 0 1 800] ------- [1:0 0:0 32 0] [0 0] 0 0
r 0.506496196 _0_ MAC  --- 1 ack 40 [13a 0 1 800] ------- [1:0 0:0 32 0] [0 0] 1 0
s 0.506506196 _0_ MAC  --- 0 ACK 38 [0 1 0 0] 
r 0.506810816 _1_ MAC  --- 0 ACK 38 [0 1 0 0] 
s 0.507020196 _0_ MAC  --- 0 RTS 44 [24ce 1 0 0] 
r 0.507372816 _1_ MAC  --- 0 RTS 44 [24ce 1 0 0] 
s 0.507382816 _1_ MAC  --- 0 CTS 38 [2394 0 0 0] 
r 0.507687435 _0_ MAC  --- 0 CTS 38 [2394 0 0 0] 
s 0.507697435 _0_ MAC  --- 2 tcp 1098 [13a 1 0 800] ------- [0:0 1:0 32 0] [1 0] 0 0
r 0.516482055 _1_ MAC  --- 2 tcp 1040 [13a 1 0 800] ------- [0:0 1:0 32 0] [1 0] 1 0
s 0.516492055 _1_ MAC  --- 0 ACK 38 [0 0 0 0] 
r 0.516796674 _0_ MAC  --- 0 ACK 38 [0 0 0 0] 
s 0.516906055 _1_ MAC  --- 0 RTS 44 [58e 0 1 0] 
r 0.517258674 _0_ MAC  --- 0 RTS 44 [58e 0 1 0] 
s 0.517268674 _0_ MAC  --- 0 CTS 38 [454 1 0 0] 
r 0.517573293 _1_ MAC  --- 0 CTS 38 [454 1 0 0] 
s 0.517583293 _1_ MAC  --- 4 ack 98 [13a 0 1 800] ------- [1:0 0:0 32 0] [1 0] 0 0
r 0.518367912 _0_ MAC  --- 4 ack 40 [13a 0 1 800] ------- [1:0 0:0 32 0] [1 0] 1 0
s 0.518377912 _0_ MAC  --- 0 ACK 38 [0 1 0 0] 
r 0.518682531 _1_ MAC  --- 0 ACK 38 [0 1 0 0] 
s 0.518931912 _0_ MAC  --- 0 RTS 44 [24ce 1 0 0] 
r 0.519284531 _1_ MAC  --- 0 RTS 44 [24ce 1 0 0] 
s 0.519294531 _1_ MAC  --- 0 CTS 38 [2394 0 0 0] 
r 0.519599150 _0_ MAC  --- 0 CTS 38 [2394 0 0 0] 
s 0.519609150 _0_ MAC  --- 3 tcp 1098 [13a 1 0 800] ------- [0:0 1:0 32 0] [2 0] 0 0
r 0.528393769 _1_ MAC  --- 3 tcp 1040 [13a 1 0 800] ------- [0:0 1:0 32 0] [2 0] 1 0
s 0.528403769 _1_ MAC  --- 0 ACK 38 [0 0 0 0] 
r 0.528708388 _0_ MAC  --- 0 ACK 38 [0 0 0 0] 
s 0.528937769 _1_ MAC  --- 0 RTS 44 [58e 0 1 0] 
r 0.529290388 _0_ MAC  --- 0 RTS 44 [58e 0 1 0] 
s 0.529300388 _0_ MAC  --- 0 CTS 38 [454 1 0 0] 
r 0.529605007 _1_ MAC  --- 0 CTS 38 [454 1 0 0] 
s 0.529615007 _1_ MAC  --- 7 ack 98 [13a 0 1 800] ------- [1:0 0:0 32 0] [2 0] 0 0
r 0.530399626 _0_ MAC  --- 7 ack 40 [13a 0 1 800] ------- [1:0 0:0 32 0] [2 0] 1 0
s 0.530409626 _0_ MAC  --- 0 ACK 38 [0 1 0 0] 
r 0.530714244 _1_ MAC  --- 0 ACK 38 [0 1 0 0] 
s 0.530863626 _0_ MAC  --- 0 RTS 44 [24ce 1 0 0] 
r 0.531216244 _1_ MAC  --- 0 RTS 44 [24ce 1 0 0] 
s 0.531226244 _1_ MAC  --- 0 CTS 38 [2394 0 0 0] 
r 0.531530863 _0_ MAC  --- 0 CTS 38 [2394 0 0 0] 
s 0.531540863 _0_ MAC  --- 5 tcp 1098 [13a 1 0 800] ------- [0:0 1:0 32 0] [3 0] 0 0
r 0.540325482 _1_ MAC  --- 5 tcp 1040 [13a 1 0 800] ------- [0:0 1:0 32 0] [3 0] 1 0
s 0.540335482 _1_ MAC  --- 0 ACK 38 [0 0 0 0] 
r 0.540640100 _0_ MAC  --- 0 ACK 38 [0 0 0 0] 
s 0.540730100 _0_ MAC  --- 0 RTS 44 [24ce 1 0 0] 
r 0.541082719 _1_ MAC  --- 0 RTS 44 [24ce 1 0 0] 
s 0.541092719 _1_ MAC  --- 0 CTS 38 [2394 0 0 0] 
r 0.541397337 _0_ MAC  --- 0 CTS 38 [2394 0 0 0] 
s 0.541407337 _0_ MAC  --- 6 tcp 1098 [13a 1 0 800] ------- [0:0 1:0 32 0] [4 0] 0 0
r 0.550191955 _1_ MAC  --- 6 tcp 1040 [13a 1 0 800] ------- [0:0 1:0 32 0] [4 0] 1 0
s 0.550201955 _1_ MAC  --- 0 ACK 38 [0 0 0 0] 
r 0.550506573 _0_ MAC  --- 0 ACK 38 [0 0 0 0] 
s 0.550675955 _1_ MAC  --- 0 RTS 44 [58e 0 1 0] 
r 0.551028573 _0_ MAC  --- 0 RTS 44 [58e 0 1 0] 
s 0.551038573 _0_ MAC  --- 0 CTS 38 [454 1 0 0] 
r 0.551343191 _1_ MAC  --- 0 CTS 38 [454 1 0 0] 
s 0.551353191 _1_ MAC  --- 10 ack 98 [13a 0 1 800] ------- [1:0 0:0 32 0] [3 0] 0 0
r 0.552137809 _0_ MAC  --- 10 ack 40 [13a 0 1 800] ------- [1:0 0:0 32 0] [3 0] 1 0
s 0.552147809 _0_ MAC  --- 0 ACK 38 [0 1 0 0] 
r 0.552452427 _1_ MAC  --- 0 ACK 38 [0 1 0 0] 
s 0.552662427 _1_ MAC  --- 0 RTS 44 [58e 0 1 0] 
r 0.553015045 _0_ MAC  --- 0 RTS 44 [58e 0 1 0] 
s 0.553025045 _0_ MAC  --- 0 CTS 38 [454 1 0 0] 
r 0.553329663 _1_ MAC  --- 0 CTS 38 [454 1 0 0] 
s 0.553339663 _1_ MAC  --- 11 ack 98 [13a 0 1 800] ------- [1:0 0:0 32 0] [4 0] 0 0
r 0.554124281 _0_ MAC  --- 11 ack 40 [13a 0 1 800] ------- [1:0 0:0 32 0] [4 0] 1 0
s 0.554134281 _0_ MAC  --- 0 ACK 38 [0 1 0 0] 
r 0.554438899 _1_ MAC  --- 0 ACK 38 [0 1 0 0] 
s 0.554768281 _0_ MAC  --- 0 RTS 44 [24ce 1 0 0] 
r 0.555120899 _1_ MAC  --- 0 RTS 44 [24ce 1 0 0] 
s 0.555130899 _1_ MAC  --- 0 CTS 38 [2394 0 0 0] 
r 0.555435517 _0_ MAC  --- 0 CTS 38 [2394 0 0 0] 
s 0.555445517 _0_ MAC  --- 8 tcp 1098 [13a 1 0 800] ------- [0:0 1:0 32 0] [5 0] 0 0
r 0.564230135 _1_ MAC  --- 8 tcp 1040 [13a 1 0 800] ------- [0:0 1:0 32 0] [5 0] 1 0
s 0.564240135 _1_ MAC  --- 0 ACK 38 [0 0 0 0] 
r 0.564544752 _0_ MAC  --- 0 ACK 38 [0 0 0 0] 
s 0.564694135 _1_ MAC  --- 0 RTS 44 [58e 0 1 0] 
r 0.565046752 _0_ MAC  --- 0 RTS 44 [58e 0 1 0] 
s 0.565056752 _0_ MAC  --- 0 CTS 38 [454 1 0 0] 
r 0.565361370 _1_ MAC  --- 0 CTS 38 [454 1 0 0] 
s 0.565371370 _1_ MAC  --- 16 ack 98 [13a 0 1 800] ------- [1:0 0:0 32 0] [5 0] 0 0
r 0.566155988 _0_ MAC  --- 16 ack 40 [13a 0 1 800] ------- [1:0 0:0 32 0] [5 0] 1 0
s 0.566165988 _0_ MAC  --- 0 ACK 38 [0 1 0 0] 
r 0.566470605 _1_ MAC  --- 0 ACK 38 [0 1 0 0] 
s 0.566679988 _0_ MAC  --- 0 RTS 44 [24ce 1 0 0] 
r 0.567032605 _1_ MAC  --- 0 RTS 44 [24ce 1 0 0] 
s 0.567042605 _1_ MAC  --- 0 CTS 38 [2394 0 0 0] 
r 0.567347223 _0_ MAC  --- 0 CTS 38 [2394 0 0 0] 
s 0.567357223 _0_ MAC  --- 9 tcp 1098 [13a 1 0 800] ------- [0:0 1:0 32 0] [6 0] 0 0
r 0.576141840 _1_ MAC  --- 9 tcp 1040 [13a 1 0 800] ------- [0:0 1:0 32 0] [6 0] 1 0
s 0.576151840 _1_ MAC  --- 0 ACK 38 [0 0 0 0] 
r 0.576456457 _0_ MAC  --- 0 ACK 38 [0 0 0 0] 
s 0.576525840 _1_ MAC  --- 0 RTS 44 [58e 0 1 0] 
r 0.576878457 _0_ MAC  --- 0 RTS 44 [58e 0 1 0] 
s 0.576888457 _0_ MAC  --- 0 CTS 38 [454 1 0 0] 
r 0.577193074 _1_ MAC  --- 0 CTS 38 [454 1 0 0] 
s 0.577203074 _1_ MAC  --- 19 ack 98 [13a 0 1 800] ------- [1:0 0:0 32 0] [6 0] 0 0
r 0.577987692 _0_ MAC  --- 19 ack 40 [13a 0 1 800] ------- [1:0 0:0 32 0] [6 0] 1 0
s 0.577997692 _0_ MAC  --- 0 ACK 38 [0 1 0 0] 
r 0.578302309 _1_ MAC  --- 0 ACK 38 [0 1 0 0] 
s 0.578831692 _0_ MAC  --- 0 RTS 44 [24ce 1 0 0] 
r 0.579184309 _1_ MAC  --- 0 RTS 44 [24ce 1 0 0] 
s 0.579194309 _1_ MAC  --- 0 CTS 38 [2394 0 0 0] 
r 0.579498926 _0_ MAC  --- 0 CTS 38 [2394 0 0 0] 
s 0.579508926 _0_ MAC  --- 12 tcp 1098 [13a 1 0 800] ------- [0:0 1:0 32 0] [7 0] 0 0
r 0.588293543 _1_ MAC  --- 12 tcp 1040 [13a 1 0 800] ------- [0:0 1:0 32 0] [7 0] 1 0
s 0.588303543 _1_ MAC  --- 0 ACK 38 [0 0 0 0] 
r 0.588608160 _0_ MAC  --- 0 ACK 38 [0 0 0 0] 
s 0.588858160 _0_ MAC  --- 0 RTS 44 [24ce 1 0 0] 
r 0.589210776 _1_ MAC  --- 0 RTS 44 [24ce 1 0 0] 
s 0.589220776 _1_ MAC  --- 0 CTS 38 [2394 0 0 0] 
r 0.589525393 _0_ MAC  --- 0 CTS 38 [2394 0 0 0] 
s 0.589535393 _0_ MAC  --- 13 tcp 1098 [13a 1 0 800] ------- [0:0 1:0 32 0] [8 0] 0 0
r 0.598320010 _1_ MAC  --- 13 tcp 1040 [13a 1 0 800] ------- [0:0 1:0 32 0] [8 0] 1 0
s 0.598330010 _1_ MAC  --- 0 ACK 38 [0 0 0 0] 
r 0.598634626 _0_ MAC  --- 0 ACK 38 [0 0 0 0] 
s 0.598804010 _1_ MAC  --- 0 RTS 44 [58e 0 1 0] 
r 0.599156626 _0_ MAC  --- 0 RTS 44 [58e 0 1 0] 
s 0.599166626 _0_ MAC  --- 0 CTS 38 [454 1 0 0] 
r 0.599471243 _1_ MAC  --- 0 CTS 38 [454 1 0 0] 
s 0.599481243 _1_ MAC  --- 22 ack 98 [13a 0 1 800] ------- [1:0 0:0 32 0] [7 0] 0 0
r 0.600265859 _0_ MAC  --- 22 ack 40 [13a 0 1 800] ------- [1:0 0:0 32 0] [7 0] 1 0
s 0.600275859 _0_ MAC  --- 0 ACK 38 [0 1 0 0] 
r 0.600580476 _1_ MAC  --- 0 ACK 38 [0 1 0 0] 
s 0.600650476 _1_ MAC  --- 0 RTS 44 [58e 0 1 0] 
r 0.601003092 _0_ MAC  --- 0 RTS 44 [58e 0 1 0] 
s 0.601013092 _0_ MAC  --- 0 CTS 38 [454 1 0 0] 
r 0.601317708 _1_ MAC  --- 0 CTS 38 [454 1 0 0] 
s 0.601327708 _1_ MAC  --- 23 ack 98 [13a 0 1 800] ------- [1:0 0:0 32 0] [8 0] 0 0
r 0.602112325 _0_ MAC  --- 23 ack 40 [13a 0 1 800] ------- [1:0 0:0 32 0] [8 0] 1 0
s 0.602122325 _0_ MAC  --- 0 ACK 38 [0 1 0 0] 
r 0.602426941 _1_ MAC  --- 0 ACK 38 [0 1 0 0] 
s 0.602576325 _0_ MAC  --- 0 RTS 44 [24ce 1 0 0] 
r 0.602928941 _1_ MAC  --- 0 RTS 44 [24ce 1 0 0] 
s 0.602938941 _1_ MAC  --- 0 CTS 38 [2394 0 0 0] 
r 0.603243557 _0_ MAC  --- 0 CTS 38 [2394 0 0 0] 
s 0.603253557 _0_ MAC  --- 14 tcp 1098 [13a 1 0 800] ------- [0:0 1:0 32 0] [9 0] 0 0
r 0.612038174 _1_ MAC  --- 14 tcp 1040 [13a 1 0 800] ------- [0:0 1:0 32 0] [9 0] 1 0
s 0.612048174 _1_ MAC  --- 0 ACK 38 [0 0 0 0] 
r 0.612352790 _0_ MAC  --- 0 ACK 38 [0 0 0 0] 
s 0.612562174 _1_ MAC  --- 0 RTS 44 [58e 0 1 0] 
r 0.612914789 _0_ MAC  --- 0 RTS 44 [58e 0 1 0] 
s 0.612924789 _0_ MAC  --- 0 CTS 38 [454 1 0 0] 
r 0.613229405 _1_ MAC  --- 0 CTS 38 [454 1 0 0] 
s 0.613239405 _1_ MAC  --- 28 ack 98 [13a 0 1 800] ------- [1:0 0:0 32 0] [9 0] 0 0
r 0.614024021 _0_ MAC  --- 28 ack 40 [13a 0 1 800] ------- [1:0 0:0 32 0] [9 0] 1 0
s 0.614034021 _0_ MAC  --- 0 ACK 38 [0 1 0 0] 
r 0.614338637 _1_ MAC  --- 0 ACK 38 [0 1 0 0] 
s 0.614688021 _0_ MAC  --- 0 RTS 44 [24ce 1 0 0] 
r 0.615040637 _1_ MAC  --- 0 RTS 44 [24ce 1 0 0] 
s 0.615050637 _1_ MAC  --- 0 CTS 38 [2394 0 0 0] 
r 0.615355253 _0_ MAC  --- 0 CTS 38 [2394 0 0 0] 
s 0.615365253 _0_ MAC  --- 15 tcp 1098 [13a 1 0 800] ------- [0:0 1:0 32 0] [10 0] 0 0
r 0.624149869 _1_ MAC  --- 15 tcp 1040 [13a 1 0 800] ------- [0:0 1:0 32 0] [10 0] 1 0
s 0.624159869 _1_ MAC  --- 0 ACK 38 [0 0 0 0] 
r 0.624464485 _0_ MAC  --- 0 ACK 38 [0 0 0 0] 
s 0.624914485 _0_ MAC  --- 0 RTS 44 [24ce 1 0 0] 
r 0.625267100 _1_ MAC  --- 0 RTS 44 [24ce 1 0 0] 
s 0.625277100 _1_ MAC  --- 0 CTS 38 [2394 0 0 0] 
r 0.625581716 _0_ MAC  --- 0 CTS 38 [2394 0 0 0] 
s 0.625591716 _0_ MAC  --- 17 tcp 1098 [13a 1 0 800] ------- [0:0 1:0 32 0] [11 0] 0 0
r 0.634376331 _1_ MAC  --- 17 tcp 1040 [13a 1 0 800] ------- [0:0 1:0 32 0] [11 0] 1 0
s 0.634386331 _1_ MAC  --- 0 ACK 38 [0 0 0 0] 
r 0.634690947 _0_ MAC  --- 0 ACK 38 [0 0 0 0] 
s 0.634920331 _1_ MAC  --- 0 RTS 44 [58e 0 1 0] 
r 0.635272947 _0_ MAC  --- 0 RTS 44 [58e 0 1 0] 
s 0.635282947 _0_ MAC  --- 0 CTS 38 [454 1 0 0] 
r 0.635587562 _1_ MAC  --- 0 CTS 38 [454 1 0 0] 
s 0.635597562 _1_ MAC  --- 31 ack 98 [13a 0 1 800] ------- [1:0 0:0 32 0] [10 0] 0 0
r 0.636382177 _0_ MAC  --- 31 ack 40 [13a 0 1 800] ------- [1:0 0:0 32 0] [10 0] 1 0
s 0.636392177 _0_ MAC  --- 0 ACK 38 [0 1 0 0] 
r 0.636696792 _1_ MAC  --- 0 ACK 38 [0 1 0 0] 
s 0.637106792 _1_ MAC  --- 0 RTS 44 [58e 0 1 0] 
r 0.637459407 _0_ MAC  --- 0 RTS 44 [58e 0 1 0] 
s 0.637469407 _0_ MAC  --- 0 CTS 38 [454 1 0 0] 
r 0.637774022 _1_ MAC  --- 0 CTS 38 [454 1 0 0] 
s 0.637784022 _1_ MAC  --- 32 ack 98 [13a 0 1 800] ------- [1:0 0:0 32 0] [11 0] 0 0
r 0.638568638 _0_ MAC  --- 32 ack 40 [13a 0 1 800] ------- [1:0 0:0 32 0] [11 0] 1 0
s 0.638578638 _0_ MAC  --- 0 ACK 38 [0 1 0 0] 
r 0.638883253 _1_ MAC  --- 0 ACK 38 [0 1 0 0] 
s 0.638952638 _0_ MAC  --- 0 RTS 44 [24ce 1 0 0] 
r 0.639305253 _1_ MAC  --- 0 RTS 44 [24ce 1 0 0] 
s 0.639315253 _1_ MAC  --- 0 CTS 38 [2394 0 0 0] 
r 0.639619868 _0_ MAC  --- 0 CTS 38 [2394 0 0 0] 
s 0.639629868 _0_ MAC  --- 18 tcp 1098 [13a 1 0 800] ------- [0:0 1:0 32 0] [12 0] 0 0
r 0.648414483 _1_ MAC  --- 18 tcp 1040 [13a 1 0 800] ------- [0:0 1:0 32 0] [12 0] 1 0
s 0.648424483 _1_ MAC  --- 0 ACK 38 [0 0 0 0] 
r 0.648729098 _0_ MAC  --- 0 ACK 38 [0 0 0 0] 
s 0.648818483 _1_ MAC  --- 0 RTS 44 [58e 0 1 0] 
r 0.649171098 _0_ MAC  --- 0 RTS 44 [58e 0 1 0] 
s 0.649181098 _0_ MAC  --- 0 CTS 38 [454 1 0 0] 
r 0.649485712 _1_ MAC  --- 0 CTS 38 [454 1 0 0] 
s 0.649495712 _1_ MAC  --- 37 ack 98 [13a 0 1 800] ------- [1:0 0:0 32 0] [12 0] 0 0
r 0.650280327 _0_ MAC  --- 37 ack 40 [13a 0 1 800] ------- [1:0 0:0 32 0] [12 0] 1 0
s 0.650290327 _0_ MAC  --- 0 ACK 38 [0 1 0 0] 
r 0.650594942 _1_ MAC  --- 0 ACK 38 [0 1 0 0] 
s 0.650924327 _0_ MAC  --- 0 RTS 44 [24ce 1 0 0] 
r 0.651276942 _1_ MAC  --- 0 RTS 44 [24ce 1 0 0] 
s 0.651286942 _1_ MAC  --- 0 CTS 38 [2394 0 0 0] 
r 0.651591557 _0_ MAC  --- 0 CTS 38 [2394 0 0 0] 
s 0.651601557 _0_ MAC  --- 20 tcp 1098 [13a 1 0 800] ------- [0:0 1:0 32 0] [13 0] 0 0
r 0.660386171 _1_ MAC  --- 20 tcp 1040 [13a 1 0 800] ------- [0:0 1:0 32 0] [13 0] 1 0
s 0.660396171 _1_ MAC  --- 0 ACK 38 [0 0 0 0] 
r 0.660700786 _0_ MAC  --- 0 ACK 38 [0 0 0 0] 
s 0.660850171 _1_ MAC  --- 0 RTS 44 [58e 0 1 0] 
r 0.661202786 _0_ MAC  --- 0 RTS 44 [58e 0 1 0] 
s 0.661212786 _0_ MAC  --- 0 CTS 38 [454 1 0 0] 
r 0.661517400 _1_ MAC  --- 0 CTS 38 [454 1 0 0] 
s 0.661527400 _1_ MAC  --- 40 ack 98 [13a 0 1 800] ------- [1:0 0:0 32 0] [13 0] 0 0
r 0.662312014 _0_ MAC  --- 40 ack 40 [13a 0 1 800] ------- [1:0 0:0 32 0] [13 0] 1 0
s 0.662322014 _0_ MAC  --- 0 ACK 38 [0 1 0 0] 
r 0.662626629 _1_ MAC  --- 0 ACK 38 [0 1 0 0] 
s 0.662736014 _0_ MAC  --- 0 RTS 44 [24ce 1 0 0] 
r 0.663088629 _1_ MAC  --- 0 RTS 44 [24ce 1 0 0] 
s 0.663098629 _1_ MAC  --- 0 CTS 38 [2394 0 0 0] 
r 0.663403243 _0_ MAC  --- 0 CTS 38 [2394 0 0 0] 
s 0.663413243 _0_ MAC  --- 21 tcp 1098 [13a 1 0 800] ------- [0:0 1:0 32 0] [14 0] 0 0
r 0.672197857 _1_ MAC  --- 21 tcp 1040 [13a 1 0 800] ------- [0:0 1:0 32 0] [14 0] 1 0
s 0.672207857 _1_ MAC  --- 0 ACK 38 [0 0 0 0] 
r 0.672512471 _0_ MAC  --- 0 ACK 38 [0 0 0 0] 
s 0.672601857 _1_ MAC  --- 0 RTS 44 [58e 0 1 0] 
r 0.672954471 _0_ MAC  --- 0 RTS 44 [58e 0 1 0] 
s 0.672964471 _0_ MAC  --- 0 CTS 38 [454 1 0 0] 
r 0.673269085 _1_ MAC  --- 0 CTS 38 [454 1 0 0] 
s 0.673279085 _1_ MAC  --- 43 ack 98 [13a 0 1 800] ------- [1:0 0:0 32 0] [14 0] 0 0
r 0.674063699 _0_ MAC  --- 43 ack 40 [13a 0 1 800] ------- [1:0 0:0 32 0] [14 0] 1 0
s 0.674073699 _0_ MAC  --- 0 ACK 38 [0 1 0 0] 
r 0.674378313 _1_ MAC  --- 0 ACK 38 [0 1 0 0] 
s 0.674687699 _0_ MAC  --- 0 RTS 44 [24ce 1 0 0] 
r 0.675040313 _1_ MAC  --- 0 RTS 44 [24ce 1 0 0] 
s 0.675050313 _1_ MAC  --- 0 CTS 38 [2394 0 0 0] 
r 0.675354927 _0_ MAC  --- 0 CTS 38 [2394 0 0 0] 
s 0.675364927 _0_ MAC  --- 24 tcp 1098 [13a 1 0 800] ------- [0:0 1:0 32 0] [15 0] 0 0
r 0.684149541 _1_ MAC  --- 24 tcp 1040 [13a 1 0 800] ------- [0:0 1:0 32 0] [15 0] 1 0
s 0.684159541 _1_ MAC  --- 0 ACK 38 [0 0 0 0] 
r 0.684464154 _0_ MAC  --- 0 ACK 38 [0 0 0 0] 
s 0.684613541 _1_ MAC  --- 0 RTS 44 [58e 0 1 0] 
r 0.684966154 _0_ MAC  --- 0 RTS 44 [58e 0 1 0] 
s 0.684976154 _0_ MAC  --- 0 CTS 38 [454 1 0 0] 
r 0.685280768 _1_ MAC  --- 0 CTS 38 [454 1 0 0] 
s 0.685290768 _1_ MAC  --- 46 ack 98 [13a 0 1 800] ------- [1:0 0:0 32 0] [15 0] 0 0
r 0.686075381 _0_ MAC  --- 46 ack 40 [13a 0 1 800] ------- [1:0 0:0 32 0] [15 0] 1 0
s 0.686085381 _0_ MAC  --- 0 ACK 38 [0 1 0 0] 
r 0.686389995 _1_ MAC  --- 0 ACK 38 [0 1 0 0] 
s 0.686879381 _0_ MAC  --- 0 RTS 44 [24ce 1 0 0] 
r 0.687231995 _1_ MAC  --- 0 RTS 44 [24ce 1 0 0] 
s 0.687241995 _1_ MAC  --- 0 CTS 38 [2394 0 0 0] 
r 0.687546608 _0_ MAC  --- 0 CTS 38 [2394 0 0 0] 
s 0.687556608 _0_ MAC  --- 25 tcp 1098 [13a 1 0 800] ------- [0:0 1:0 32 0] [16 0] 0 0
r 0.696341222 _1_ MAC  --- 25 tcp 1040 [13a 1 0 800] ------- [0:0 1:0 32 0] [16 0] 1 0
s 0.696351222 _1_ MAC  --- 0 ACK 38 [0 0 0 0] 
r 0.696655835 _0_ MAC  --- 0 ACK 38 [0 0 0 0] 
s 0.696905222 _1_ MAC  --- 0 RTS 44 [58e 0 1 0] 
r 0.697257835 _0_ MAC  --- 0 RTS 44 [58e 0 1 0] 
s 0.697267835 _0_ MAC  --- 0 CTS 38 [454 1 0 0] 
r 0.697572448 _1_ MAC  --- 0 CTS 38 [454 1 0 0] 
s 0.697582448 _1_ MAC  --- 49 ack 98 [13a 0 1 800] ------- [1:0 0:0 32 0] [16 0] 0 0
r 0.698367061 _0_ MAC  --- 49 ack 40 [13a 0 1 800] ------- [1:0 0:0 32 0] [16 0] 1 0
s 0.698377061 _0_ MAC  --- 0 ACK 38 [0 1 0 0] 
r 0.698681674 _1_ MAC  --- 0 ACK 38 [0 1 0 0] 
s 0.699131061 _0_ MAC  --- 0 RTS 44 [24ce 1 0 0] 
r 0.699483674 _1_ MAC  --- 0 RTS 44 [24ce 1 0 0] 
s 0.699493674 _1_ MAC  --- 0 CTS 38 [2394 0 0 0] 
r 0.699798288 _0_ MAC  --- 0 CTS 38 [2394 0 0 0] 
s 0.699808288 _0_ MAC  --- 26 tcp 1098 [13a 1 0 800] ------- [0:0 1:0 32 0] [17 0] 0 0
r 0.708592901 _1_ MAC  --- 26 tcp 1040 [13a 1 0 800] ------- [0:0 1:0 32 0] [17 0] 1 0
s 0.708602901 _1_ MAC  --- 0 ACK 38 [0 0 0 0] 
r 0.708907513 _0_ MAC  --- 0 ACK 38 [0 0 0 0] 
s 0.709076901 _1_ MAC  --- 0 RTS 44 [58e 0 1 0] 
r 0.709429513 _0_ MAC  --- 0 RTS 44 [58e 0 1 0] 
s 0.709439513 _0_ MAC  --- 0 CTS 38 [454 1 0 0] 
r 0.709744126 _1_ MAC  --- 0 CTS 38 [454 1 0 0] 
s 0.709754126 _1_ MAC  --- 52 ack 98 [13a 0 1 800] ------- [1:0 0:0 32 0] [17 0] 0 0
r 0.710538739 _0_ MAC  --- 52 ack 40 [13a 0 1 800] ------- [1:0 0:0 32 0] [17 0] 1 0
s 0.710548739 _0_ MAC  --- 0 ACK 38 [0 1 0 0] 
r 0.710853352 _1_ MAC  --- 0 ACK 38 [0 1 0 0] 
s 0.711142739 _0_ MAC  --- 0 RTS 44 [24ce 1 0 0] 
r 0.711495352 _1_ MAC  --- 0 RTS 44 [24ce 1 0 0] 
s 0.711505352 _1_ MAC  --- 0 CTS 38 [2394 0 0 0] 
r 0.711809964 _0_ MAC  --- 0 CTS 38 [2394 0 0 0] 
s 0.711819964 _0_ MAC  --- 27 tcp 1098 [13a 1 0 800] ------- [0:0 1:0 32 0] [18 0] 0 0
r 0.720604577 _1_ MAC  --- 27 tcp 1040 [13a 1 0 800] ------- [0:0 1:0 32 0] [18 0] 1 0
s 0.720614577 _1_ MAC  --- 0 ACK 38 [0 0 0 0] 
r 0.720919189 _0_ MAC  --- 0 ACK 38 [0 0 0 0] 
s 0.721248577 _1_ MAC  --- 0 RTS 44 [58e 0 1 0] 
r 0.721601189 _0_ MAC  --- 0 RTS 44 [58e 0 1 0] 
s 0.721611189 _0_ MAC  --- 0 CTS 38 [454 1 0 0] 
r 0.721915802 _1_ MAC  --- 0 CTS 38 [454 1 0 0] 
s 0.721925802 _1_ MAC  --- 55 ack 98 [13a 0 1 800] ------- [1:0 0:0 32 0] [18 0] 0 0
r 0.722710414 _0_ MAC  --- 55 ack 40 [13a 0 1 800] ------- [1:0 0:0 32 0] [18 0] 1 0
s 0.722720414 _0_ MAC  --- 0 ACK 38 [0 1 0 0] 
r 0.723025026 _1_ MAC  --- 0 ACK 38 [0 1 0 0] 
s 0.723094414 _0_ MAC  --- 0 RTS 44 [24ce 1 0 0] 
r 0.723447026 _1_ MAC  --- 0 RTS 44 [24ce 1 0 0] 
s 0.723457026 _1_ MAC  --- 0 CTS 38 [2394 0 0 0] 
r 0.723761638 _0_ MAC  --- 0 CTS 38 [2394 0 0 0] 
s 0.723771638 _0_ MAC  --- 29 tcp 1098 [13a 1 0 800] ------- [0:0 1:0 32 0] [19 0] 0 0
r 0.732556251 _1_ MAC  --- 29 tcp 1040 [13a 1 0 800] ------- [0:0 1:0 32 0] [19 0] 1 0
s 0.732566251 _1_ MAC  --- 0 ACK 38 [0 0 0 0] 
r 0.732870863 _0_ MAC  --- 0 ACK 38 [0 0 0 0] 
s 0.733100251 _1_ MAC  --- 0 RTS 44 [58e 0 1 0] 
r 0.733452863 _0_ MAC  --- 0 RTS 44 [58e 0 1 0] 
s 0.733462863 _0_ MAC  --- 0 CTS 38 [454 1 0 0] 
r 0.733767475 _1_ MAC  --- 0 CTS 38 [454 1 0 0] 
s 0.733777475 _1_ MAC  --- 58 ack 98 [13a 0 1 800] ------- [1:0 0:0 32 0] [19 0] 0 0
r 0.734562087 _0_ MAC  --- 58 ack 40 [13a 0 1 800] ------- [1:0 0:0 32 0] [19 0] 1 0
s 0.734572087 _0_ MAC  --- 0 ACK 38 [0 1 0 0] 
r 0.734876699 _1_ MAC  --- 0 ACK 38 [0 1 0 0] 
s 0.735046087 _0_ MAC  --- 0 RTS 44 [24ce 1 0 0] 
r 0.735398699 _1_ MAC  --- 0 RTS 44 [24ce 1 0 0] 
s 0.735408699 _1_ MAC  --- 0 CTS 38 [2394 0 0 0] 
r 0.735713310 _0_ MAC  --- 0 CTS 38 [2394 0 0 0] 
s 0.735723310 _0_ MAC  --- 30 tcp 1098 [13a 1 0 800] ------- [0:0 1:0 32 0] [20 0] 0 0
r 0.744507922 _1_ MAC  --- 30 tcp 1040 [13a 1 0 800] ------- [0:0 1:0 32 0] [20 0] 1 0
s 0.744517922 _1_ MAC  --- 0 ACK 38 [0 0 0 0] 
r 0.744822534 _0_ MAC  --- 0 ACK 38 [0 0 0 0] 
s 0.744872534 _0_ MAC  --- 0 RTS 44 [24ce 1 0 0] 
r 0.745225145 _1_ MAC  --- 0 RTS 44 [24ce 1 0 0] 
s 0.745235145 _1_ MAC  --- 0 CTS 38 [2394 0 0 0] 
r 0.745539757 _0_ MAC  --- 0 CTS 38 [2394 0 0 0] 
s 0.745549757 _0_ MAC  --- 33 tcp 1098 [13a 1 0 800] ------- [0:0 1:0 32 0] [21 0] 0 0
r 0.754334369 _1_ MAC  --- 33 tcp 1040 [13a 1 0 800] ------- [0:0 1:0 32 0] [21 0] 1 0
s 0.754344369 _1_ MAC  --- 0 ACK 38 [0 0 0 0] 
r 0.754648980 _0_ MAC  --- 0 ACK 38 [0 0 0 0] 
s 0.754918980 _0_ MAC  --- 0 RTS 44 [24ce 1 0 0] 
r 0.755271591 _1_ MAC  --- 0 RTS 44 [24ce 1 0 0] 
s 0.755281591 _1_ MAC  --- 0 CTS 38 [2394 0 0 0] 
r 0.755586202 _0_ MAC  --- 0 CTS 38 [2394 0 0 0] 
s 0.755596202 _0_ MAC  --- 34 tcp 1098 [13a 1 0 800] ------- [0:0 1:0 32 0] [22 0] 0 0
r 0.764380813 _1_ MAC  --- 34 tcp 1040 [13a 1 0 800] ------- [0:0 1:0 32 0] [22 0] 1 0
s 0.764390813 _1_ MAC  --- 0 ACK 38 [0 0 0 0] 
r 0.764695424 _0_ MAC  --- 0 ACK 38 [0 0 0 0] 
s 0.764904813 _1_ MAC  --- 0 RTS 44 [58e 0 1 0] 
r 0.765257424 _0_ MAC  --- 0 RTS 44 [58e 0 1 0] 
s 0.765267424 _0_ MAC  --- 0 CTS 38 [454 1 0 0] 
r 0.765572035 _1_ MAC  --- 0 CTS 38 [454 1 0 0] 
s 0.765582035 _1_ MAC  --- 60 ack 98 [13a 0 1 800] ------- [1:0 0:0 32 0] [20 0] 0 0
r 0.766366646 _0_ MAC  --- 60 ack 40 [13a 0 1 800] ------- [1:0 0:0 32 0] [20 0] 1 0
s 0.766376646 _0_ MAC  --- 0 ACK 38 [0 1 0 0] 
r 0.766681257 _1_ MAC  --- 0 ACK 38 [0 1 0 0] 
s 0.766891257 _1_ MAC  --- 0 RTS 44 [58e 0 1 0] 
r 0.767243868 _0_ MAC  --- 0 RTS 44 [58e 0 1 0] 
s 0.767253868 _0_ MAC  --- 0 CTS 38 [454 1 0 0] 
r 0.767558479 _1_ MAC  --- 0 CTS 38 [454 1 0 0] 
s 0.767568479 _1_ MAC  --- 61 ack 98 [13a 0 1 800] ------- [1:0 0:0 32 0] [21 0] 0 0
r 0.768353089 _0_ MAC  --- 61 ack 40 [13a 0 1 800] ------- [1:0 0:0 32 0] [21 0] 1 0
s 0.768363089 _0_ MAC  --- 0 ACK 38 [0 1 0 0] 
r 0.768667700 _1_ MAC  --- 0 ACK 38 [0 1 0 0] 
s 0.768737089 _0_ MAC  --- 0 RTS 44 [24ce 1 0 0] 
r 0.769089700 _1_ MAC  --- 0 RTS 44 [24ce 1 0 0] 
s 0.769099700 _1_ MAC  --- 0 CTS 38 [2394 0 0 0] 
r 0.769404311 _0_ MAC  --- 0 CTS 38 [2394 0 0 0] 
s 0.769414311 _0_ MAC  --- 35 tcp 1098 [13a 1 0 800] ------- [0:0 1:0 32 0] [23 0] 0 0
r 0.778198922 _1_ MAC  --- 35 tcp 1040 [13a 1 0 800] ------- [0:0 1:0 32 0] [23 0] 1 0
s 0.778208922 _1_ MAC  --- 0 ACK 38 [0 0 0 0] 
r 0.778513532 _0_ MAC  --- 0 ACK 38 [0 0 0 0] 
s 0.778643532 _0_ MAC  --- 0 RTS 44 [24ce 1 0 0] 
r 0.778996143 _1_ MAC  --- 0 RTS 44 [24ce 1 0 0] 
s 0.779006143 _1_ MAC  --- 0 CTS 38 [2394 0 0 0] 
r 0.779310753 _0_ MAC  --- 0 CTS 38 [2394 0 0 0] 
s 0.779320753 _0_ MAC  --- 36 tcp 1098 [13a 1 0 800] ------- [0:0 1:0 32 0] [24 0] 0 0
r 0.788105363 _1_ MAC  --- 36 tcp 1040 [13a 1 0 800] ------- [0:0 1:0 32 0] [24 0] 1 0
s 0.788115363 _1_ MAC  --- 0 ACK 38 [0 0 0 0] 
r 0.788419974 _0_ MAC  --- 0 ACK 38 [0 0 0 0] 
s 0.788609363 _1_ MAC  --- 0 RTS 44 [58e 0 1 0] 
r 0.788961974 _0_ MAC  --- 0 RTS 44 [58e 0 1 0] 
s 0.788971974 _0_ MAC  --- 0 CTS 38 [454 1 0 0] 
r 0.789276584 _1_ MAC  --- 0 CTS 38 [454 1 0 0] 
s 0.789286584 _1_ MAC  --- 62 ack 98 [13a 0 1 800] ------- [1:0 0:0 32 0] [22 0] 0 0
r 0.790071194 _0_ MAC  --- 62 ack 40 [13a 0 1 800] ------- [1:0 0:0 32 0] [22 0] 1 0
s 0.790081194 _0_ MAC  --- 0 ACK 38 [0 1 0 0] 
r 0.790385804 _1_ MAC  --- 0 ACK 38 [0 1 0 0] 
s 0.790435804 _1_ MAC  --- 0 RTS 44 [58e 0 1 0] 
r 0.790788414 _0_ MAC  --- 0 RTS 44 [58e 0 1 0] 
s 0.790798414 _0_ MAC  --- 0 CTS 38 [454 1 0 0] 
r 0.791103024 _1_ MAC  --- 0 CTS 38 [454 1 0 0] 
s 0.791113024 _1_ MAC  --- 65 ack 98 [13a 0 1 800] ------- [1:0 0:0 32 0] [23 0] 0 0
r 0.791897634 _0_ MAC  --- 65 ack 40 [13a 0 1 800] ------- [1:0 0:0 32 0] [23 0] 1 0
s 0.791907634 _0_ MAC  --- 0 ACK 38 [0 1 0 0] 
r 0.792212244 _1_ MAC  --- 0 ACK 38 [0 1 0 0] 
s 0.792441634 _0_ MAC  --- 0 RTS 44 [24ce 1 0 0] 
r 0.792794244 _1_ MAC  --- 0 RTS 44 [24ce 1 0 0] 
s 0.792804244 _1_ MAC  --- 0 CTS 38 [2394 0 0 0] 
r 0.793108854 _0_ MAC  --- 0 CTS 38 [2394 0 0 0] 
s 0.793118854 _0_ MAC  --- 38 tcp 1098 [13a 1 0 800] ------- [0:0 1:0 32 0] [25 0] 0 0
r 0.801903464 _1_ MAC  --- 38 tcp 1040 [13a 1 0 800] ------- [0:0 1:0 32 0] [25 0] 1 0
s 0.801913464 _1_ MAC  --- 0 ACK 38 [0 0 0 0] 
r 0.802218073 _0_ MAC  --- 0 ACK 38 [0 0 0 0] 
s 0.802347464 _1_ MAC  --- 0 RTS 44 [58e 0 1 0] 
r 0.802700073 _0_ MAC  --- 0 RTS 44 [58e 0 1 0] 
s 0.802710073 _0_ MAC  --- 0 CTS 38 [454 1 0 0] 
r 0.803014683 _1_ MAC  --- 0 CTS 38 [454 1 0 0] 
s 0.803024683 _1_ MAC  --- 66 ack 98 [13a 0 1 800] ------- [1:0 0:0 32 0] [24 0] 0 0
r 0.803809293 _0_ MAC  --- 66 ack 40 [13a 0 1 800] ------- [1:0 0:0 32 0] [24 0] 1 0
s 0.803819293 _0_ MAC  --- 0 ACK 38 [0 1 0 0] 
r 0.804123902 _1_ MAC  --- 0 ACK 38 [0 1 0 0] 
s 0.804413293 _0_ MAC  --- 0 RTS 44 [24ce 1 0 0] 
r 0.804765902 _1_ MAC  --- 0 RTS 44 [24ce 1 0 0] 
s 0.804775902 _1_ MAC  --- 0 CTS 38 [2394 0 0 0] 
r 0.805080512 _0_ MAC  --- 0 CTS 38 [2394 0 0 0] 
s 0.805090512 _0_ MAC  --- 39 tcp 1098 [13a 1 0 800] ------- [0:0 1:0 32 0] [26 0] 0 0
r 0.813875121 _1_ MAC  --- 39 tcp 1040 [13a 1 0 800] ------- [0:0 1:0 32 0] [26 0] 1 0
s 0.813885121 _1_ MAC  --- 0 ACK 38 [0 0 0 0] 
r 0.814189731 _0_ MAC  --- 0 ACK 38 [0 0 0 0] 
s 0.814259731 _0_ MAC  --- 0 RTS 44 [24ce 1 0 0] 
r 0.814612340 _1_ MAC  --- 0 RTS 44 [24ce 1 0 0] 
s 0.814622340 _1_ MAC  --- 0 CTS 38 [2394 0 0 0] 
r 0.814926949 _0_ MAC  --- 0 CTS 38 [2394 0 0 0] 
s 0.814936949 _0_ MAC  --- 41 tcp 1098 [13a 1 0 800] ------- [0:0 1:0 32 0] [27 0] 0 0
r 0.823721558 _1_ MAC  --- 41 tcp 1040 [13a 1 0 800] ------- [0:0 1:0 32 0] [27 0] 1 0
s 0.823731558 _1_ MAC  --- 0 ACK 38 [0 0 0 0] 
r 0.824036167 _0_ MAC  --- 0 ACK 38 [0 0 0 0] 
s 0.824125558 _1_ MAC  --- 0 RTS 44 [58e 0 1 0] 
r 0.824478167 _0_ MAC  --- 0 RTS 44 [58e 0 1 0] 
s 0.824488167 _0_ MAC  --- 0 CTS 38 [454 1 0 0] 
r 0.824792776 _1_ MAC  --- 0 CTS 38 [454 1 0 0] 
s 0.824802776 _1_ MAC  --- 69 ack 98 [13a 0 1 800] ------- [1:0 0:0 32 0] [25 0] 0 0
r 0.825587385 _0_ MAC  --- 69 ack 40 [13a 0 1 800] ------- [1:0 0:0 32 0] [25 0] 1 0
s 0.825597385 _0_ MAC  --- 0 ACK 38 [0 1 0 0] 
r 0.825901994 _1_ MAC  --- 0 ACK 38 [0 1 0 0] 
s 0.826191994 _1_ MAC  --- 0 RTS 44 [58e 0 1 0] 
r 0.826544603 _0_ MAC  --- 0 RTS 44 [58e 0 1 0] 
s 0.826554603 _0_ MAC  --- 0 CTS 38 [454 1 0 0] 
r 0.826859212 _1_ MAC  --- 0 CTS 38 [454 1 0 0] 
s 0.826869212 _1_ MAC  --- 71 ack 98 [13a 0 1 800] ------- [1:0 0:0 32 0] [26 0] 0 0
r 0.827653821 _0_ MAC  --- 71 ack 40 [13a 0 1 800] ------- [1:0 0:0 32 0] [26 0] 1 0
s 0.827663821 _0_ MAC  --- 0 ACK 38 [0 1 0 0] 
r 0.827968429 _1_ MAC  --- 0 ACK 38 [0 1 0 0] 
s 0.828138429 _1_ MAC  --- 0 RTS 44 [58e 0 1 0] 
r 0.828491038 _0_ MAC  --- 0 RTS 44 [58e 0 1 0] 
s 0.828501038 _0_ MAC  --- 0 CTS 38 [454 1 0 0] 
r 0.828805647 _1_ MAC  --- 0 CTS 38 [454 1 0 0] 
s 0.828815647 _1_ MAC  --- 72 ack 98 [13a 0 1 800] ------- [1:0 0:0 32 0] [27 0] 0 0
r 0.829600256 _0_ MAC  --- 72 ack 40 [13a 0 1 800] ------- [1:0 0:0 32 0] [27 0] 1 0
s 0.829610256 _0_ MAC  --- 0 ACK 38 [0 1 0 0] 
r 0.829914864 _1_ MAC  --- 0 ACK 38 [0 1 0 0] 
s 0.830064256 _0_ MAC  --- 0 RTS 44 [24ce 1 0 0] 
r 0.830416864 _1_ MAC  --- 0 RTS 44 [24ce 1 0 0] 
s 0.830426864 _1_ MAC  --- 0 CTS 38 [2394 0 0 0] 
r 0.830731473 _0_ MAC  --- 0 CTS 38 [2394 0 0 0] 
s 0.830741473 _0_ MAC  --- 42 tcp 1098 [13a 1 0 800] ------- [0:0 1:0 32 0] [28 0] 0 0
r 0.839526082 _1_ MAC  --- 42 tcp 1040 [13a 1 0 800] ------- [0:0 1:0 32 0] [28 0] 1 0
s 0.839536082 _1_ MAC  --- 0 ACK 38 [0 0 0 0] 
r 0.839840690 _0_ MAC  --- 0 ACK 38 [0 0 0 0] 
s 0.839930690 _0_ MAC  --- 0 RTS 44 [24ce 1 0 0] 
r 0.840283299 _1_ MAC  --- 0 RTS 44 [24ce 1 0 0] 
s 0.840293299 _1_ MAC  --- 0 CTS 38 [2394 0 0 0] 
r 0.840597907 _0_ MAC  --- 0 CTS 38 [2394 0 0 0] 
s 0.840607907 _0_ MAC  --- 44 tcp 1098 [13a 1 0 800] ------- [0:0 1:0 32 0] [29 0] 0 0
r 0.849392515 _1_ MAC  --- 44 tcp 1040 [13a 1 0 800] ------- [0:0 1:0 32 0] [29 0] 1 0
s 0.849402515 _1_ MAC  --- 0 ACK 38 [0 0 0 0] 
r 0.849707124 _0_ MAC  --- 0 ACK 38 [0 0 0 0] 
s 0.849936515 _1_ MAC  --- 0 RTS 44 [58e 0 1 0] 
r 0.850289124 _0_ MAC  --- 0 RTS 44 [58e 0 1 0] 
s 0.850299124 _0_ MAC  --- 0 CTS 38 [454 1 0 0] 
r 0.850603732 _1_ MAC  --- 0 CTS 38 [454 1 0 0] 
s 0.850613732 _1_ MAC  --- 76 ack 98 [13a 0 1 800] ------- [1:0 0:0 32 0] [28 0] 0 0
r 0.851398340 _0_ MAC  --- 76 ack 40 [13a 0 1 800] ------- [1:0 0:0 32 0] [28 0] 1 0
s 0.851408340 _0_ MAC  --- 0 ACK 38 [0 1 0 0] 
r 0.851712948 _1_ MAC  --- 0 ACK 38 [0 1 0 0] 
s 0.851882948 _1_ MAC  --- 0 RTS 44 [58e 0 1 0] 
r 0.852235556 _0_ MAC  --- 0 RTS 44 [58e 0 1 0] 
s 0.852245556 _0_ MAC  --- 0 CTS 38 [454 1 0 0] 
r 0.852550164 _1_ MAC  --- 0 CTS 38 [454 1 0 0] 
s 0.852560164 _1_ MAC  --- 77 ack 98 [13a 0 1 800] ------- [1:0 0:0 32 0] [29 0] 0 0
r 0.853344772 _0_ MAC  --- 77 ack 40 [13a 0 1 800] ------- [1:0 0:0 32 0] [29 0] 1 0
s 0.853354772 _0_ MAC  --- 0 ACK 38 [0 1 0 0] 
r 0.853659380 _1_ MAC  --- 0 ACK 38 [0 1 0 0] 
s 0.853888772 _0_ MAC  --- 0 RTS 44 [24ce 1 0 0] 
r 0.854241380 _1_ MAC  --- 0 RTS 44 [24ce 1 0 0] 
s 0.854251380 _1_ MAC  --- 0 CTS 38 [2394 0 0 0] 
r 0.854555987 _0_ MAC  --- 0 CTS 38 [2394 0 0 0] 
s 0.854565987 _0_ MAC  --- 45 tcp 1098 [13a 1 0 800] ------- [0:0 1:0 32 0] [30 0] 0 0
r 0.863350595 _1_ MAC  --- 45 tcp 1040 [13a 1 0 800] ------- [0:0 1:0 32 0] [30 0] 1 0
s 0.863360595 _1_ MAC  --- 0 ACK 38 [0 0 0 0] 
r 0.863665203 _0_ MAC  --- 0 ACK 38 [0 0 0 0] 
s 0.863754595 _1_ MAC  --- 0 RTS 44 [58e 0 1 0] 
r 0.864107203 _0_ MAC  --- 0 RTS 44 [58e 0 1 0] 
s 0.864117203 _0_ MAC  --- 0 CTS 38 [454 1 0 0] 
r 0.864421811 _1_ MAC  --- 0 CTS 38 [454 1 0 0] 
s 0.864431811 _1_ MAC  --- 80 ack 98 [13a 0 1 800] ------- [1:0 0:0 32 0] [30 0] 0 0
r 0.865216418 _0_ MAC  --- 80 ack 40 [13a 0 1 800] ------- [1:0 0:0 32 0] [30 0] 1 0
s 0.865226418 _0_ MAC  --- 0 ACK 38 [0 1 0 0] 
r 0.865531026 _1_ MAC  --- 0 ACK 38 [0 1 0 0] 
s 0.865660418 _0_ MAC  --- 0 RTS 44 [24ce 1 0 0] 
r 0.866013026 _1_ MAC  --- 0 RTS 44 [24ce 1 0 0] 
s 0.866023026 _1_ MAC  --- 0 CTS 38 [2394 0 0 0] 
r 0.866327633 _0_ MAC  --- 0 CTS 38 [2394 0 0 0] 
s 0.866337633 _0_ MAC  --- 47 tcp 1098 [13a 1 0 800] ------- [0:0 1:0 32 0] [31 0] 0 0
r 0.875122241 _1_ MAC  --- 47 tcp 1040 [13a 1 0 800] ------- [0:0 1:0 32 0] [31 0] 1 0
s 0.875132241 _1_ MAC  --- 0 ACK 38 [0 0 0 0] 
r 0.875436848 _0_ MAC  --- 0 ACK 38 [0 0 0 0] 
s 0.875506241 _1_ MAC  --- 0 RTS 44 [58e 0 1 0] 
r 0.875858848 _0_ MAC  --- 0 RTS 44 [58e 0 1 0] 