n -t * -s 0  -x 0 -y 0 -Z 0 -z 10  -v circle -c black
n -t * -s 1  -x 0 -y 0 -Z 0 -z 10  -v circle -c black
n -t * -s 2  -x 0 -y 0 -Z 0 -z 10  -v circle -c black
n -t * -s 3  -x 0 -y 0 -Z 0 -z 10  -v circle -c black
n -t * -s 4  -x 0 -y 0 -Z 0 -z 10  -v circle -c black
n -t * -s 5  -x 0 -y 0 -Z 0 -z 10  -v circle -c black
n -t * -s 6  -x 0 -y 0 -Z 0 -z 10  -v circle -c black
n -t * -s 7  -x 0 -y 0 -Z 0 -z 10  -v circle -c black
n -t * -s 8  -x 0 -y 0 -Z 0 -z 10  -v circle -c black
n -t * -s 9  -x 0 -y 0 -Z 0 -z 10  -v circle -c black
V -t * -v 1.0a5 -a 0
W -t * -x 1000 -y 1000
A -t * -n 1 -p 0 -o 0x7fffffff -c 30 -a 1
A -t * -h 1 -m 1073741823 -s 0
+ -t 0.003769945 -s 0 -d -1 -p message -e 32 -c 2 -a 0 -i 0 -k RTR 
- -t 0.003769945 -s 0 -d -1 -p message -e 32 -c 2 -a 0 -i 0 -k RTR
h -t 0.003769945 -s 0 -d -1 -p message -e 32 -c 2 -a 0 -i 0 -k RTR
+ -t 0.003884945 -s 0 -d -1 -p message -e 90 -c 2 -a 0 -i 0 -k MAC 
- -t 0.003884945 -s 0 -d -1 -p message -e 90 -c 2 -a 0 -i 0 -k MAC
h -t 0.003884945 -s 0 -d -1 -p message -e 90 -c 2 -a 0 -i 0 -k MAC
r -t 0.004605567 -s 1 -d -1 -p message -e 32 -c 2 -a 0 -i 0 -k MAC
r -t 0.004605646 -s 9 -d -1 -p message -e 32 -c 2 -a 0 -i 0 -k MAC
r -t 0.004605736 -s 5 -d -1 -p message -e 32 -c 2 -a 0 -i 0 -k MAC
r -t 0.004605775 -s 4 -d -1 -p message -e 32 -c 2 -a 0 -i 0 -k MAC
r -t 0.004630567 -s 1 -d -1 -p message -e 32 -c 2 -a 0 -i 0 -k RTR
r -t 0.004630646 -s 9 -d -1 -p message -e 32 -c 2 -a 0 -i 0 -k RTR
r -t 0.004630736 -s 5 -d -1 -p message -e 32 -c 2 -a 0 -i 0 -k RTR
r -t 0.004630775 -s 4 -d -1 -p message -e 32 -c 2 -a 0 -i 0 -k RTR
+ -t 0.034809998 -s 2 -d -1 -p message -e 32 -c 2 -a 0 -i 1 -k RTR 
- -t 0.034809998 -s 2 -d -1 -p message -e 32 -c 2 -a 0 -i 1 -k RTR
h -t 0.034809998 -s 2 -d -1 -p message -e 32 -c 2 -a 0 -i 1 -k RTR
+ -t 0.035124998 -s 2 -d -1 -p message -e 90 -c 2 -a 0 -i 1 -k MAC 
- -t 0.035124998 -s 2 -d -1 -p message -e 90 -c 2 -a 0 -i 1 -k MAC
h -t 0.035124998 -s 2 -d -1 -p message -e 90 -c 2 -a 0 -i 1 -k MAC
r -t 0.035845212 -s 4 -d -1 -p message -e 32 -c 2 -a 0 -i 1 -k MAC
r -t 0.035845272 -s 1 -d -1 -p message -e 32 -c 2 -a 0 -i 1 -k MAC
r -t 0.035870212 -s 4 -d -1 -p message -e 32 -c 2 -a 0 -i 1 -k RTR
r -t 0.035870272 -s 1 -d -1 -p message -e 32 -c 2 -a 0 -i 1 -k RTR
+ -t 0.177993395 -s 3 -d -1 -p message -e 32 -c 2 -a 0 -i 2 -k RTR 
- -t 0.177993395 -s 3 -d -1 -p message -e 32 -c 2 -a 0 -i 2 -k RTR
h -t 0.177993395 -s 3 -d -1 -p message -e 32 -c 2 -a 0 -i 2 -k RTR
+ -t 0.178388395 -s 3 -d -1 -p message -e 90 -c 2 -a 0 -i 2 -k MAC 
- -t 0.178388395 -s 3 -d -1 -p message -e 90 -c 2 -a 0 -i 2 -k MAC
h -t 0.178388395 -s 3 -d -1 -p message -e 90 -c 2 -a 0 -i 2 -k MAC
r -t 0.179108963 -s 6 -d -1 -p message -e 32 -c 2 -a 0 -i 2 -k MAC
r -t 0.179133963 -s 6 -d -1 -p message -e 32 -c 2 -a 0 -i 2 -k RTR
+ -t 0.471784383 -s 8 -d -1 -p message -e 32 -c 2 -a 0 -i 3 -k RTR 
- -t 0.471784383 -s 8 -d -1 -p message -e 32 -c 2 -a 0 -i 3 -k RTR
h -t 0.471784383 -s 8 -d -1 -p message -e 32 -c 2 -a 0 -i 3 -k RTR
+ -t 0.472099383 -s 8 -d -1 -p message -e 90 -c 2 -a 0 -i 3 -k MAC 
- -t 0.472099383 -s 8 -d -1 -p message -e 90 -c 2 -a 0 -i 3 -k MAC
h -t 0.472099383 -s 8 -d -1 -p message -e 90 -c 2 -a 0 -i 3 -k MAC
+ -t 0.632846612 -s 6 -d -1 -p message -e 32 -c 2 -a 0 -i 4 -k RTR 
- -t 0.632846612 -s 6 -d -1 -p message -e 32 -c 2 -a 0 -i 4 -k RTR
h -t 0.632846612 -s 6 -d -1 -p message -e 32 -c 2 -a 0 -i 4 -k RTR
+ -t 0.633321612 -s 6 -d -1 -p message -e 90 -c 2 -a 0 -i 4 -k MAC 
- -t 0.633321612 -s 6 -d -1 -p message -e 90 -c 2 -a 0 -i 4 -k MAC
h -t 0.633321612 -s 6 -d -1 -p message -e 90 -c 2 -a 0 -i 4 -k MAC
r -t 0.634042179 -s 3 -d -1 -p message -e 32 -c 2 -a 0 -i 4 -k MAC
r -t 0.634042248 -s 7 -d -1 -p message -e 32 -c 2 -a 0 -i 4 -k MAC
r -t 0.634067179 -s 3 -d -1 -p message -e 32 -c 2 -a 0 -i 4 -k RTR
r -t 0.634067248 -s 7 -d -1 -p message -e 32 -c 2 -a 0 -i 4 -k RTR
+ -t 0.884759020 -s 4 -d -1 -p message -e 32 -c 2 -a 0 -i 5 -k RTR 
- -t 0.884759020 -s 4 -d -1 -p message -e 32 -c 2 -a 0 -i 5 -k RTR
h -t 0.884759020 -s 4 -d -1 -p message -e 32 -c 2 -a 0 -i 5 -k RTR
+ -t 0.885134020 -s 4 -d -1 -p message -e 90 -c 2 -a 0 -i 5 -k MAC 
- -t 0.885134020 -s 4 -d -1 -p message -e 90 -c 2 -a 0 -i 5 -k MAC
h -t 0.885134020 -s 4 -d -1 -p message -e 90 -c 2 -a 0 -i 5 -k MAC
r -t 0.885854229 -s 1 -d -1 -p message -e 32 -c 2 -a 0 -i 5 -k MAC
r -t 0.885854234 -s 2 -d -1 -p message -e 32 -c 2 -a 0 -i 5 -k MAC
r -t 0.885854850 -s 0 -d -1 -p message -e 32 -c 2 -a 0 -i 5 -k MAC
r -t 0.885879229 -s 1 -d -1 -p message -e 32 -c 2 -a 0 -i 5 -k RTR
r -t 0.885879234 -s 2 -d -1 -p message -e 32 -c 2 -a 0 -i 5 -k RTR
r -t 0.885879850 -s 0 -d -1 -p message -e 32 -c 2 -a 0 -i 5 -k RTR
+ -t 1.120810887 -s 1 -d -1 -p message -e 32 -c 2 -a 0 -i 6 -k RTR 
- -t 1.120810887 -s 1 -d -1 -p message -e 32 -c 2 -a 0 -i 6 -k RTR
h -t 1.120810887 -s 1 -d -1 -p message -e 32 -c 2 -a 0 -i 6 -k RTR
+ -t 1.121165887 -s 1 -d -1 -p message -e 90 -c 2 -a 0 -i 6 -k MAC 
- -t 1.121165887 -s 1 -d -1 -p message -e 90 -c 2 -a 0 -i 6 -k MAC
h -t 1.121165887 -s 1 -d -1 -p message -e 90 -c 2 -a 0 -i 6 -k MAC
r -t 1.121886095 -s 4 -d -1 -p message -e 32 -c 2 -a 0 -i 6 -k MAC
r -t 1.121886161 -s 2 -d -1 -p message -e 32 -c 2 -a 0 -i 6 -k MAC
r -t 1.121886508 -s 0 -d -1 -p message -e 32 -c 2 -a 0 -i 6 -k MAC
r -t 1.121911095 -s 4 -d -1 -p message -e 32 -c 2 -a 0 -i 6 -k RTR
r -t 1.121911161 -s 2 -d -1 -p message -e 32 -c 2 -a 0 -i 6 -k RTR
r -t 1.121911508 -s 0 -d -1 -p message -e 32 -c 2 -a 0 -i 6 -k RTR
+ -t 1.279603939 -s 9 -d -1 -p message -e 32 -c 2 -a 0 -i 7 -k RTR 
- -t 1.279603939 -s 9 -d -1 -p message -e 32 -c 2 -a 0 -i 7 -k RTR
h -t 1.279603939 -s 9 -d -1 -p message -e 32 -c 2 -a 0 -i 7 -k RTR
+ -t 1.279898939 -s 9 -d -1 -p message -e 90 -c 2 -a 0 -i 7 -k MAC 
- -t 1.279898939 -s 9 -d -1 -p message -e 90 -c 2 -a 0 -i 7 -k MAC
h -t 1.279898939 -s 9 -d -1 -p message -e 90 -c 2 -a 0 -i 7 -k MAC
r -t 1.280619244 -s 5 -d -1 -p message -e 32 -c 2 -a 0 -i 7 -k MAC
r -t 1.280619640 -s 0 -d -1 -p message -e 32 -c 2 -a 0 -i 7 -k MAC
r -t 1.280644244 -s 5 -d -1 -p message -e 32 -c 2 -a 0 -i 7 -k RTR
r -t 1.280644640 -s 0 -d -1 -p message -e 32 -c 2 -a 0 -i 7 -k RTR
+ -t 1.599431220 -s 5 -d -1 -p message -e 32 -c 2 -a 0 -i 8 -k RTR 
- -t 1.599431220 -s 5 -d -1 -p message -e 32 -c 2 -a 0 -i 8 -k RTR
h -t 1.599431220 -s 5 -d -1 -p message -e 32 -c 2 -a 0 -i 8 -k RTR
+ -t 1.599626220 -s 5 -d -1 -p message -e 90 -c 2 -a 0 -i 8 -k MAC 
- -t 1.599626220 -s 5 -d -1 -p message -e 90 -c 2 -a 0 -i 8 -k MAC
h -t 1.599626220 -s 5 -d -1 -p message -e 90 -c 2 -a 0 -i 8 -k MAC
r -t 1.600346526 -s 9 -d -1 -p message -e 32 -c 2 -a 0 -i 8 -k MAC
r -t 1.600347011 -s 0 -d -1 -p message -e 32 -c 2 -a 0 -i 8 -k MAC
r -t 1.600371526 -s 9 -d -1 -p message -e 32 -c 2 -a 0 -i 8 -k RTR
r -t 1.600372011 -s 0 -d -1 -p message -e 32 -c 2 -a 0 -i 8 -k RTR
+ -t 1.636308730 -s 7 -d -1 -p message -e 32 -c 2 -a 0 -i 9 -k RTR 
- -t 1.636308730 -s 7 -d -1 -p message -e 32 -c 2 -a 0 -i 9 -k RTR
h -t 1.636308730 -s 7 -d -1 -p message -e 32 -c 2 -a 0 -i 9 -k RTR
+ -t 1.636563730 -s 7 -d -1 -p message -e 90 -c 2 -a 0 -i 9 -k MAC 
- -t 1.636563730 -s 7 -d -1 -p message -e 90 -c 2 -a 0 -i 9 -k MAC
h -t 1.636563730 -s 7 -d -1 -p message -e 90 -c 2 -a 0 -i 9 -k MAC
r -t 1.637284367 -s 6 -d -1 -p message -e 32 -c 2 -a 0 -i 9 -k MAC
r -t 1.637309367 -s 6 -d -1 -p message -e 32 -c 2 -a 0 -i 9 -k RTR
n -t 10.000000 -s 0 -x 514.363968 -y 284.340619 -U -0.004406 -V 0.012700 -T 49407.487580
n -t 10.000000 -s 1 -x 643.659896 -y 149.919625 -U -0.747944 -V -0.326872 -T 416.009650
n -t 10.000000 -s 2 -x 725.967589 -y 148.703643 -U -0.336505 -V 0.084263 -T 938.882429
n -t 10.000000 -s 3 -x 665.333009 -y 725.174954 -U -0.001738 -V -0.308863 -T 444.960857
n -t 10.000000 -s 4 -x 682.881447 -y 101.166921 -U -0.247885 -V 0.134216 -T 1831.177845
n -t 10.000000 -s 5 -x 366.602131 -y 469.966771 -U 0.219274 -V 0.270086 -T 1127.906416
n -t 10.000000 -s 6 -x 835.597308 -y 721.863105 -U -0.119333 -V 0.002946 -T 4249.864118
n -t 10.000000 -s 7 -x 937.160277 -y 560.155071 -U -0.774885 -V 0.061795 -T 1096.136563
n -t 10.000000 -s 8 -x 2.252052 -y 360.668296 -U 0.220096 -V 0.360046 -T 738.918654
n -t 10.000000 -s 9 -x 456.678403 -y 486.648594 -U 0.519000 -V 0.539641 -T 726.356221
+ -t 11.712176986 -s 2 -d -1 -p message -e 32 -c 2 -a 0 -i 10 -k RTR 
- -t 11.712176986 -s 2 -d -1 -p message -e 32 -c 2 -a 0 -i 10 -k RTR
h -t 11.712176986 -s 2 -d -1 -p message -e 32 -c 2 -a 0 -i 10 -k RTR
+ -t 11.712471986 -s 2 -d -1 -p message -e 90 -c 2 -a 0 -i 10 -k MAC 
- -t 11.712471986 -s 2 -d -1 -p message -e 90 -c 2 -a 0 -i 10 -k MAC
h -t 11.712471986 -s 2 -d -1 -p message -e 90 -c 2 -a 0 -i 10 -k MAC
r -t 11.713192199 -s 4 -d -1 -p message -e 32 -c 2 -a 0 -i 10 -k MAC
r -t 11.713192262 -s 1 -d -1 -p message -e 32 -c 2 -a 0 -i 10 -k MAC
r -t 11.713217199 -s 4 -d -1 -p message -e 32 -c 2 -a 0 -i 10 -k RTR
r -t 11.713217262 -s 1 -d -1 -p message -e 32 -c 2 -a 0 -i 10 -k RTR
+ -t 11.784814444 -s 3 -d -1 -p message -e 32 -c 2 -a 0 -i 11 -k RTR 
- -t 11.784814444 -s 3 -d -1 -p message -e 32 -c 2 -a 0 -i 11 -k RTR
h -t 11.784814444 -s 3 -d -1 -p message -e 32 -c 2 -a 0 -i 11 -k RTR
+ -t 11.784969444 -s 3 -d -1 -p message -e 90 -c 2 -a 0 -i 11 -k MAC 
- -t 11.784969444 -s 3 -d -1 -p message -e 90 -c 2 -a 0 -i 11 -k MAC
h -t 11.784969444 -s 3 -d -1 -p message -e 90 -c 2 -a 0 -i 11 -k MAC
r -t 11.785690011 -s 6 -d -1 -p message -e 32 -c 2 -a 0 -i 11 -k MAC
r -t 11.785715011 -s 6 -d -1 -p message -e 32 -c 2 -a 0 -i 11 -k RTR
+ -t 12.006492709 -s 1 -d -1 -p message -e 32 -c 2 -a 0 -i 12 -k RTR 
- -t 12.006492709 -s 1 -d -1 -p message -e 32 -c 2 -a 0 -i 12 -k RTR
h -t 12.006492709 -s 1 -d -1 -p message -e 32 -c 2 -a 0 -i 12 -k RTR
+ -t 12.006587709 -s 1 -d -1 -p message -e 90 -c 2 -a 0 -i 12 -k MAC 
- -t 12.006587709 -s 1 -d -1 -p message -e 90 -c 2 -a 0 -i 12 -k MAC
h -t 12.006587709 -s 1 -d -1 -p message -e 90 -c 2 -a 0 -i 12 -k MAC
r -t 12.007307918 -s 4 -d -1 -p message -e 32 -c 2 -a 0 -i 12 -k MAC
r -t 12.007307986 -s 2 -d -1 -p message -e 32 -c 2 -a 0 -i 12 -k MAC
r -t 12.007308329 -s 0 -d -1 -p message -e 32 -c 2 -a 0 -i 12 -k MAC
r -t 12.007332918 -s 4 -d -1 -p message -e 32 -c 2 -a 0 -i 12 -k RTR
r -t 12.007332986 -s 2 -d -1 -p message -e 32 -c 2 -a 0 -i 12 -k RTR
r -t 12.007333329 -s 0 -d -1 -p message -e 32 -c 2 -a 0 -i 12 -k RTR
+ -t 12.012357732 -s 4 -d -1 -p message -e 32 -c 2 -a 0 -i 15 -k RTR 
- -t 12.012357732 -s 4 -d -1 -p message -e 32 -c 2 -a 0 -i 15 -k RTR
h -t 12.012357732 -s 4 -d -1 -p message -e 32 -c 2 -a 0 -i 15 -k RTR
+ -t 12.012480517 -s 9 -d -1 -p message -e 32 -c 2 -a 0 -i 13 -k RTR 
- -t 12.012480517 -s 9 -d -1 -p message -e 32 -c 2 -a 0 -i 13 -k RTR
h -t 12.012480517 -s 9 -d -1 -p message -e 32 -c 2 -a 0 -i 13 -k RTR
+ -t 12.012672732 -s 4 -d -1 -p message -e 90 -c 2 -a 0 -i 15 -k MAC 
- -t 12.012672732 -s 4 -d -1 -p message -e 90 -c 2 -a 0 -i 15 -k MAC
h -t 12.012672732 -s 4 -d -1 -p message -e 90 -c 2 -a 0 -i 15 -k MAC
r -t 12.013392940 -s 1 -d -1 -p message -e 32 -c 2 -a 0 -i 15 -k MAC
r -t 12.013392945 -s 2 -d -1 -p message -e 32 -c 2 -a 0 -i 15 -k MAC
r -t 12.013393560 -s 0 -d -1 -p message -e 32 -c 2 -a 0 -i 15 -k MAC
r -t 12.013417940 -s 1 -d -1 -p message -e 32 -c 2 -a 0 -i 15 -k RTR
r -t 12.013417945 -s 2 -d -1 -p message -e 32 -c 2 -a 0 -i 15 -k RTR
r -t 12.013418560 -s 0 -d -1 -p message -e 32 -c 2 -a 0 -i 15 -k RTR
+ -t 12.013828222 -s 9 -d -1 -p message -e 90 -c 2 -a 0 -i 13 -k MAC 
- -t 12.013828222 -s 9 -d -1 -p message -e 90 -c 2 -a 0 -i 13 -k MAC
h -t 12.013828222 -s 9 -d -1 -p message -e 90 -c 2 -a 0 -i 13 -k MAC
+ -t 12.014098898 -s 5 -d -1 -p message -e 32 -c 2 -a 0 -i 14 -k RTR 
- -t 12.014098898 -s 5 -d -1 -p message -e 32 -c 2 -a 0 -i 14 -k RTR
h -t 12.014098898 -s 5 -d -1 -p message -e 32 -c 2 -a 0 -i 14 -k RTR
r -t 12.014548529 -s 5 -d -1 -p message -e 32 -c 2 -a 0 -i 13 -k MAC
r -t 12.014548925 -s 0 -d -1 -p message -e 32 -c 2 -a 0 -i 13 -k MAC
r -t 12.014573529 -s 5 -d -1 -p message -e 32 -c 2 -a 0 -i 13 -k RTR
r -t 12.014573925 -s 0 -d -1 -p message -e 32 -c 2 -a 0 -i 13 -k RTR
+ -t 12.014638529 -s 5 -d -1 -p message -e 90 -c 2 -a 0 -i 14 -k MAC 
- -t 12.014638529 -s 5 -d -1 -p message -e 90 -c 2 -a 0 -i 14 -k MAC
h -t 12.014638529 -s 5 -d -1 -p message -e 90 -c 2 -a 0 -i 14 -k MAC
r -t 12.015358837 -s 9 -d -1 -p message -e 32 -c 2 -a 0 -i 14 -k MAC
r -t 12.015359321 -s 0 -d -1 -p message -e 32 -c 2 -a 0 -i 14 -k MAC
r -t 12.015383837 -s 9 -d -1 -p message -e 32 -c 2 -a 0 -i 14 -k RTR
r -t 12.015384321 -s 0 -d -1 -p message -e 32 -c 2 -a 0 -i 14 -k RTR
+ -t 12.639396234 -s 7 -d -1 -p message -e 32 -c 2 -a 0 -i 17 -k RTR 
- -t 12.639396234 -s 7 -d -1 -p message -e 32 -c 2 -a 0 -i 17 -k RTR
h -t 12.639396234 -s 7 -d -1 -p message -e 32 -c 2 -a 0 -i 17 -k RTR
+ -t 12.639571234 -s 7 -d -1 -p message -e 90 -c 2 -a 0 -i 17 -k MAC 
- -t 12.639571234 -s 7 -d -1 -p message -e 90 -c 2 -a 0 -i 17 -k MAC
h -t 12.639571234 -s 7 -d -1 -p message -e 90 -c 2 -a 0 -i 17 -k MAC
r -t 12.640291867 -s 6 -d -1 -p message -e 32 -c 2 -a 0 -i 17 -k MAC
r -t 12.640316867 -s 6 -d -1 -p message -e 32 -c 2 -a 0 -i 17 -k RTR
+ -t 12.780148049 -s 3 -d -1 -p message -e 32 -c 2 -a 0 -i 18 -k RTR 
- -t 12.780148049 -s 3 -d -1 -p message -e 32 -c 2 -a 0 -i 18 -k RTR
h -t 12.780148049 -s 3 -d -1 -p message -e 32 -c 2 -a 0 -i 18 -k RTR
+ -t 12.780423049 -s 3 -d -1 -p message -e 90 -c 2 -a 0 -i 18 -k MAC 
- -t 12.780423049 -s 3 -d -1 -p message -e 90 -c 2 -a 0 -i 18 -k MAC
h -t 12.780423049 -s 3 -d -1 -p message -e 90 -c 2 -a 0 -i 18 -k MAC
r -t 12.781143615 -s 6 -d -1 -p message -e 32 -c 2 -a 0 -i 18 -k MAC
r -t 12.781168615 -s 6 -d -1 -p message -e 32 -c 2 -a 0 -i 18 -k RTR
+ -t 12.893159652 -s 2 -d -1 -p message -e 32 -c 2 -a 0 -i 19 -k RTR 
- -t 12.893159652 -s 2 -d -1 -p message -e 32 -c 2 -a 0 -i 19 -k RTR
h -t 12.893159652 -s 2 -d -1 -p message -e 32 -c 2 -a 0 -i 19 -k RTR
+ -t 12.893354652 -s 2 -d -1 -p message -e 90 -c 2 -a 0 -i 19 -k MAC 
- -t 12.893354652 -s 2 -d -1 -p message -e 90 -c 2 -a 0 -i 19 -k MAC
h -t 12.893354652 -s 2 -d -1 -p message -e 90 -c 2 -a 0 -i 19 -k MAC
r -t 12.894074865 -s 4 -d -1 -p message -e 32 -c 2 -a 0 -i 19 -k MAC
r -t 12.894074930 -s 1 -d -1 -p message -e 32 -c 2 -a 0 -i 19 -k MAC
r -t 12.894099865 -s 4 -d -1 -p message -e 32 -c 2 -a 0 -i 19 -k RTR
r -t 12.894099930 -s 1 -d -1 -p message -e 32 -c 2 -a 0 -i 19 -k RTR
+ -t 12.894626313 -s 0 -d -1 -p message -e 32 -c 2 -a 0 -i 20 -k RTR 
- -t 12.894626313 -s 0 -d -1 -p message -e 32 -c 2 -a 0 -i 20 -k RTR
h -t 12.894626313 -s 0 -d -1 -p message -e 32 -c 2 -a 0 -i 20 -k RTR
+ -t 12.895281313 -s 0 -d -1 -p message -e 90 -c 2 -a 0 -i 20 -k MAC 
- -t 12.895281313 -s 0 -d -1 -p message -e 90 -c 2 -a 0 -i 20 -k MAC
h -t 12.895281313 -s 0 -d -1 -p message -e 90 -c 2 -a 0 -i 20 -k MAC
r -t 12.896001932 -s 1 -d -1 -p message -e 32 -c 2 -a 0 -i 20 -k MAC
r -t 12.896002018 -s 9 -d -1 -p message -e 32 -c 2 -a 0 -i 20 -k MAC
r -t 12.896002105 -s 5 -d -1 -p message -e 32 -c 2 -a 0 -i 20 -k MAC
r -t 12.896002140 -s 4 -d -1 -p message -e 32 -c 2 -a 0 -i 20 -k MAC
r -t 12.896026932 -s 1 -d -1 -p message -e 32 -c 2 -a 0 -i 20 -k RTR
r -t 12.896027018 -s 9 -d -1 -p message -e 32 -c 2 -a 0 -i 20 -k RTR
r -t 12.896027105 -s 5 -d -1 -p message -e 32 -c 2 -a 0 -i 20 -k RTR
r -t 12.896027140 -s 4 -d -1 -p message -e 32 -c 2 -a 0 -i 20 -k RTR
+ -t 13.010214653 -s 1 -d -1 -p message -e 44 -c 2 -a 0 -i 21 -k RTR 
- -t 13.010214653 -s 1 -d -1 -p message -e 44 -c 2 -a 0 -i 21 -k RTR
h -t 13.010214653 -s 1 -d -1 -p message -e 44 -c 2 -a 0 -i 21 -k RTR
+ -t 13.010829653 -s 1 -d -1 -p message -e 102 -c 2 -a 0 -i 21 -k MAC 
- -t 13.010829653 -s 1 -d -1 -p message -e 102 -c 2 -a 0 -i 21 -k MAC
h -t 13.010829653 -s 1 -d -1 -p message -e 102 -c 2 -a 0 -i 21 -k MAC
r -t 13.011645861 -s 4 -d -1 -p message -e 44 -c 2 -a 0 -i 21 -k MAC
r -t 13.011645931 -s 2 -d -1 -p message -e 44 -c 2 -a 0 -i 21 -k MAC
r -t 13.011646272 -s 0 -d -1 -p message -e 44 -c 2 -a 0 -i 21 -k MAC
r -t 13.011670861 -s 4 -d -1 -p message -e 44 -c 2 -a 0 -i 21 -k RTR
r -t 13.011670931 -s 2 -d -1 -p message -e 44 -c 2 -a 0 -i 21 -k RTR
r -t 13.011671272 -s 0 -d -1 -p message -e 44 -c 2 -a 0 -i 21 -k RTR
+ -t 13.012786598 -s 4 -d -1 -p message -e 32 -c 2 -a 0 -i 22 -k RTR 
- -t 13.012786598 -s 4 -d -1 -p message -e 32 -c 2 -a 0 -i 22 -k RTR
h -t 13.012786598 -s 4 -d -1 -p message -e 32 -c 2 -a 0 -i 22 -k RTR
+ -t 13.013161598 -s 4 -d -1 -p message -e 90 -c 2 -a 0 -i 22 -k MAC 
- -t 13.013161598 -s 4 -d -1 -p message -e 90 -c 2 -a 0 -i 22 -k MAC
h -t 13.013161598 -s 4 -d -1 -p message -e 90 -c 2 -a 0 -i 22 -k MAC
r -t 13.013881806 -s 1 -d -1 -p message -e 32 -c 2 -a 0 -i 22 -k MAC
r -t 13.013881811 -s 2 -d -1 -p message -e 32 -c 2 -a 0 -i 22 -k MAC
r -t 13.013882425 -s 0 -d -1 -p message -e 32 -c 2 -a 0 -i 22 -k MAC
r -t 13.013906806 -s 1 -d -1 -p message -e 32 -c 2 -a 0 -i 22 -k RTR
r -t 13.013906811 -s 2 -d -1 -p message -e 32 -c 2 -a 0 -i 22 -k RTR
r -t 13.013907425 -s 0 -d -1 -p message -e 32 -c 2 -a 0 -i 22 -k RTR
+ -t 13.072781990 -s 5 -d -1 -p message -e 44 -c 2 -a 0 -i 23 -k RTR 
- -t 13.072781990 -s 5 -d -1 -p message -e 44 -c 2 -a 0 -i 23 -k RTR
h -t 13.072781990 -s 5 -d -1 -p message -e 44 -c 2 -a 0 -i 23 -k RTR
+ -t 13.073436990 -s 5 -d -1 -p message -e 102 -c 2 -a 0 -i 23 -k MAC 
- -t 13.073436990 -s 5 -d -1 -p message -e 102 -c 2 -a 0 -i 23 -k MAC
h -t 13.073436990 -s 5 -d -1 -p message -e 102 -c 2 -a 0 -i 23 -k MAC
r -t 13.074253299 -s 9 -d -1 -p message -e 44 -c 2 -a 0 -i 23 -k MAC
r -t 13.074253782 -s 0 -d -1 -p message -e 44 -c 2 -a 0 -i 23 -k MAC
r -t 13.074278299 -s 9 -d -1 -p message -e 44 -c 2 -a 0 -i 23 -k RTR
r -t 13.074278782 -s 0 -d -1 -p message -e 44 -c 2 -a 0 -i 23 -k RTR
+ -t 13.255096933 -s 8 -d -1 -p message -e 32 -c 2 -a 0 -i 24 -k RTR 
- -t 13.255096933 -s 8 -d -1 -p message -e 32 -c 2 -a 0 -i 24 -k RTR
h -t 13.255096933 -s 8 -d -1 -p message -e 32 -c 2 -a 0 -i 24 -k RTR
+ -t 13.255611933 -s 8 -d -1 -p message -e 90 -c 2 -a 0 -i 24 -k MAC 
- -t 13.255611933 -s 8 -d -1 -p message -e 90 -c 2 -a 0 -i 24 -k MAC
h -t 13.255611933 -s 8 -d -1 -p message -e 90 -c 2 -a 0 -i 24 -k MAC
+ -t 13.348242685 -s 7 -d -1 -p message -e 44 -c 2 -a 0 -i 25 -k RTR 
- -t 13.348242685 -s 7 -d -1 -p message -e 44 -c 2 -a 0 -i 25 -k RTR
h -t 13.348242685 -s 7 -d -1 -p message -e 44 -c 2 -a 0 -i 25 -k RTR
+ -t 13.348537685 -s 7 -d -1 -p message -e 102 -c 2 -a 0 -i 25 -k MAC 
- -t 13.348537685 -s 7 -d -1 -p message -e 102 -c 2 -a 0 -i 25 -k MAC
h -t 13.348537685 -s 7 -d -1 -p message -e 102 -c 2 -a 0 -i 25 -k MAC
r -t 13.349354318 -s 6 -d -1 -p message -e 44 -c 2 -a 0 -i 25 -k MAC
r -t 13.349379318 -s 6 -d -1 -p message -e 44 -c 2 -a 0 -i 25 -k RTR
+ -t 13.609184100 -s 9 -d -1 -p message -e 32 -c 2 -a 0 -i 26 -k RTR 
- -t 13.609184100 -s 9 -d -1 -p message -e 32 -c 2 -a 0 -i 26 -k RTR
h -t 13.609184100 -s 9 -d -1 -p message -e 32 -c 2 -a 0 -i 26 -k RTR
+ -t 13.609619100 -s 9 -d -1 -p message -e 90 -c 2 -a 0 -i 26 -k MAC 
- -t 13.609619100 -s 9 -d -1 -p message -e 90 -c 2 -a 0 -i 26 -k MAC
h -t 13.609619100 -s 9 -d -1 -p message -e 90 -c 2 -a 0 -i 26 -k MAC
r -t 13.610339410 -s 5 -d -1 -p message -e 32 -c 2 -a 0 -i 26 -k MAC
r -t 13.610339806 -s 0 -d -1 -p message -e 32 -c 2 -a 0 -i 26 -k MAC
r -t 13.610364410 -s 5 -d -1 -p message -e 32 -c 2 -a 0 -i 26 -k RTR
r -t 13.610364806 -s 0 -d -1 -p message -e 32 -c 2 -a 0 -i 26 -k RTR
+ -t 13.884170161 -s 1 -d -1 -p message -e 56 -c 2 -a 0 -i 28 -k RTR 
- -t 13.884170161 -s 1 -d -1 -p message -e 56 -c 2 -a 0 -i 28 -k RTR
h -t 13.884170161 -s 1 -d -1 -p message -e 56 -c 2 -a 0 -i 28 -k RTR
+ -t 13.884565161 -s 1 -d -1 -p message -e 114 -c 2 -a 0 -i 28 -k MAC 
- -t 13.884565161 -s 1 -d -1 -p message -e 114 -c 2 -a 0 -i 28 -k MAC
h -t 13.884565161 -s 1 -d -1 -p message -e 114 -c 2 -a 0 -i 28 -k MAC
r -t 13.885477370 -s 4 -d -1 -p message -e 56 -c 2 -a 0 -i 28 -k MAC
r -t 13.885477441 -s 2 -d -1 -p message -e 56 -c 2 -a 0 -i 28 -k MAC
r -t 13.885477780 -s 0 -d -1 -p message -e 56 -c 2 -a 0 -i 28 -k MAC
r -t 13.885502370 -s 4 -d -1 -p message -e 56 -c 2 -a 0 -i 28 -k RTR
r -t 13.885502441 -s 2 -d -1 -p message -e 56 -c 2 -a 0 -i 28 -k RTR
r -t 13.885502780 -s 0 -d -1 -p message -e 56 -c 2 -a 0 -i 28 -k RTR
+ -t 13.891087319 -s 0 -d -1 -p message -e 44 -c 2 -a 0 -i 30 -k RTR 
- -t 13.891087319 -s 0 -d -1 -p message -e 44 -c 2 -a 0 -i 30 -k RTR
h -t 13.891087319 -s 0 -d -1 -p message -e 44 -c 2 -a 0 -i 30 -k RTR
+ -t 13.891262319 -s 0 -d -1 -p message -e 102 -c 2 -a 0 -i 30 -k MAC 
- -t 13.891262319 -s 0 -d -1 -p message -e 102 -c 2 -a 0 -i 30 -k MAC
h -t 13.891262319 -s 0 -d -1 -p message -e 102 -c 2 -a 0 -i 30 -k MAC
r -t 13.892078937 -s 1 -d -1 -p message -e 44 -c 2 -a 0 -i 30 -k MAC
r -t 13.892079025 -s 9 -d -1 -p message -e 44 -c 2 -a 0 -i 30 -k MAC
r -t 13.892079111 -s 5 -d -1 -p message -e 44 -c 2 -a 0 -i 30 -k MAC
r -t 13.892079145 -s 4 -d -1 -p message -e 44 -c 2 -a 0 -i 30 -k MAC
r -t 13.892103937 -s 1 -d -1 -p message -e 44 -c 2 -a 0 -i 30 -k RTR
r -t 13.892104025 -s 9 -d -1 -p message -e 44 -c 2 -a 0 -i 30 -k RTR
r -t 13.892104111 -s 5 -d -1 -p message -e 44 -c 2 -a 0 -i 30 -k RTR
r -t 13.892104145 -s 4 -d -1 -p message -e 44 -c 2 -a 0 -i 30 -k RTR
+ -t 13.893775518 -s 2 -d -1 -p message -e 32 -c 2 -a 0 -i 29 -k RTR 
- -t 13.893775518 -s 2 -d -1 -p message -e 32 -c 2 -a 0 -i 29 -k RTR
h -t 13.893775518 -s 2 -d -1 -p message -e 32 -c 2 -a 0 -i 29 -k RTR
+ -t 13.893910518 -s 2 -d -1 -p message -e 90 -c 2 -a 0 -i 29 -k MAC 
- -t 13.893910518 -s 2 -d -1 -p message -e 90 -c 2 -a 0 -i 29 -k MAC
h -t 13.893910518 -s 2 -d -1 -p message -e 90 -c 2 -a 0 -i 29 -k MAC
r -t 13.894630731 -s 4 -d -1 -p message -e 32 -c 2 -a 0 -i 29 -k MAC
r -t 13.894630798 -s 1 -d -1 -p message -e 32 -c 2 -a 0 -i 29 -k MAC
r -t 13.894655731 -s 4 -d -1 -p message -e 32 -c 2 -a 0 -i 29 -k RTR
r -t 13.894655798 -s 1 -d -1 -p message -e 32 -c 2 -a 0 -i 29 -k RTR
+ -t 14.009002996 -s 4 -d -1 -p message -e 32 -c 2 -a 0 -i 31 -k RTR 
- -t 14.009002996 -s 4 -d -1 -p message -e 32 -c 2 -a 0 -i 31 -k RTR
h -t 14.009002996 -s 4 -d -1 -p message -e 32 -c 2 -a 0 -i 31 -k RTR
+ -t 14.009497996 -s 4 -d -1 -p message -e 90 -c 2 -a 0 -i 31 -k MAC 
- -t 14.009497996 -s 4 -d -1 -p message -e 90 -c 2 -a 0 -i 31 -k MAC
h -t 14.009497996 -s 4 -d -1 -p message -e 90 -c 2 -a 0 -i 31 -k MAC
r -t 14.010218205 -s 1 -d -1 -p message -e 32 -c 2 -a 0 -i 31 -k MAC
r -t 14.010218209 -s 2 -d -1 -p message -e 32 -c 2 -a 0 -i 31 -k MAC
r -t 14.010218823 -s 0 -d -1 -p message -e 32 -c 2 -a 0 -i 31 -k MAC
r -t 14.010243205 -s 1 -d -1 -p message -e 32 -c 2 -a 0 -i 31 -k RTR
r -t 14.010243209 -s 2 -d -1 -p message -e 32 -c 2 -a 0 -i 31 -k RTR
r -t 14.010243823 -s 0 -d -1 -p message -e 32 -c 2 -a 0 -i 31 -k RTR
+ -t 14.076314907 -s 5 -d -1 -p message -e 32 -c 2 -a 0 -i 32 -k RTR 
- -t 14.076314907 -s 5 -d -1 -p message -e 32 -c 2 -a 0 -i 32 -k RTR
h -t 14.076314907 -s 5 -d -1 -p message -e 32 -c 2 -a 0 -i 32 -k RTR
+ -t 14.076449907 -s 5 -d -1 -p message -e 90 -c 2 -a 0 -i 32 -k MAC 
- -t 14.076449907 -s 5 -d -1 -p message -e 90 -c 2 -a 0 -i 32 -k MAC
h -t 14.076449907 -s 5 -d -1 -p message -e 90 -c 2 -a 0 -i 32 -k MAC
r -t 14.077170217 -s 9 -d -1 -p message -e 32 -c 2 -a 0 -i 32 -k MAC
r -t 14.077170698 -s 0 -d -1 -p message -e 32 -c 2 -a 0 -i 32 -k MAC
r -t 14.077195217 -s 9 -d -1 -p message -e 32 -c 2 -a 0 -i 32 -k RTR
r -t 14.077195698 -s 0 -d -1 -p message -e 32 -c 2 -a 0 -i 32 -k RTR
+ -t 14.391121742 -s 0 -d -1 -p message -e 56 -c 2 -a 0 -i 33 -k RTR 
- -t 14.391121742 -s 0 -d -1 -p message -e 56 -c 2 -a 0 -i 33 -k RTR
h -t 14.391121742 -s 0 -d -1 -p message -e 56 -c 2 -a 0 -i 33 -k RTR
+ -t 14.391576742 -s 0 -d -1 -p message -e 114 -c 2 -a 0 -i 33 -k MAC 
- -t 14.391576742 -s 0 -d -1 -p message -e 114 -c 2 -a 0 -i 33 -k MAC
h -t 14.391576742 -s 0 -d -1 -p message -e 114 -c 2 -a 0 -i 33 -k MAC
r -t 14.392489360 -s 1 -d -1 -p message -e 56 -c 2 -a 0 -i 33 -k MAC
r -t 14.392489448 -s 9 -d -1 -p message -e 56 -c 2 -a 0 -i 33 -k MAC
r -t 14.392489534 -s 5 -d -1 -p message -e 56 -c 2 -a 0 -i 33 -k MAC
r -t 14.392489568 -s 4 -d -1 -p message -e 56 -c 2 -a 0 -i 33 -k MAC
r -t 14.392489575 -s 2 -d -1 -p message -e 56 -c 2 -a 0 -i 33 -k MAC
r -t 14.392514360 -s 1 -d -1 -p message -e 56 -c 2 -a 0 -i 33 -k RTR
r -t 14.392514448 -s 9 -d -1 -p message -e 56 -c 2 -a 0 -i 33 -k RTR
r -t 14.392514534 -s 5 -d -1 -p message -e 56 -c 2 -a 0 -i 33 -k RTR
r -t 14.392514568 -s 4 -d -1 -p message -e 56 -c 2 -a 0 -i 33 -k RTR
r -t 14.392514575 -s 2 -d -1 -p message -e 56 -c 2 -a 0 -i 33 -k RTR
+ -t 15.117643855 -s 6 -d -1 -p message -e 32 -c 2 -a 0 -i 34 -k RTR 
- -t 15.117643855 -s 6 -d -1 -p message -e 32 -c 2 -a 0 -i 34 -k RTR
h -t 15.117643855 -s 6 -d -1 -p message -e 32 -c 2 -a 0 -i 34 -k RTR
+ -t 15.118038855 -s 6 -d -1 -p message -e 90 -c 2 -a 0 -i 34 -k MAC 
- -t 15.118038855 -s 6 -d -1 -p message -e 90 -c 2 -a 0 -i 34 -k MAC
h -t 15.118038855 -s 6 -d -1 -p message -e 90 -c 2 -a 0 -i 34 -k MAC
r -t 15.118759421 -s 3 -d -1 -p message -e 32 -c 2 -a 0 -i 34 -k MAC
r -t 15.118759485 -s 7 -d -1 -p message -e 32 -c 2 -a 0 -i 34 -k MAC
r -t 15.118784421 -s 3 -d -1 -p message -e 32 -c 2 -a 0 -i 34 -k RTR
r -t 15.118784485 -s 7 -d -1 -p message -e 32 -c 2 -a 0 -i 34 -k RTR
+ -t 15.326351741 -s 4 -d -1 -p message -e 32 -c 2 -a 0 -i 35 -k RTR 
- -t 15.326351741 -s 4 -d -1 -p message -e 32 -c 2 -a 0 -i 35 -k RTR
h -t 15.326351741 -s 4 -d -1 -p message -e 32 -c 2 -a 0 -i 35 -k RTR
+ -t 15.326566741 -s 4 -d -1 -p message -e 90 -c 2 -a 0 -i 35 -k MAC 
- -t 15.326566741 -s 4 -d -1 -p message -e 90 -c 2 -a 0 -i 35 -k MAC
h -t 15.326566741 -s 4 -d -1 -p message -e 90 -c 2 -a 0 -i 35 -k MAC
r -t 15.327286949 -s 1 -d -1 -p message -e 32 -c 2 -a 0 -i 35 -k MAC
r -t 15.327286953 -s 2 -d -1 -p message -e 32 -c 2 -a 0 -i 35 -k MAC
r -t 15.327287566 -s 0 -d -1 -p message -e 32 -c 2 -a 0 -i 35 -k MAC
r -t 15.327311949 -s 1 -d -1 -p message -e 32 -c 2 -a 0 -i 35 -k RTR
r -t 15.327311953 -s 2 -d -1 -p message -e 32 -c 2 -a 0 -i 35 -k RTR
r -t 15.327312566 -s 0 -d -1 -p message -e 32 -c 2 -a 0 -i 35 -k RTR
+ -t 15.856038620 -s 9 -d -1 -p message -e 32 -c 2 -a 0 -i 36 -k RTR 
- -t 15.856038620 -s 9 -d -1 -p message -e 32 -c 2 -a 0 -i 36 -k RTR
h -t 15.856038620 -s 9 -d -1 -p message -e 32 -c 2 -a 0 -i 36 -k RTR
+ -t 15.856113620 -s 9 -d -1 -p message -e 90 -c 2 -a 0 -i 36 -k MAC 
- -t 15.856113620 -s 9 -d -1 -p message -e 90 -c 2 -a 0 -i 36 -k MAC
h -t 15.856113620 -s 9 -d -1 -p message -e 90 -c 2 -a 0 -i 36 -k MAC
r -t 15.856833932 -s 5 -d -1 -p message -e 32 -c 2 -a 0 -i 36 -k MAC
r -t 15.856834328 -s 0 -d -1 -p message -e 32 -c 2 -a 0 -i 36 -k MAC
r -t 15.856858932 -s 5 -d -1 -p message -e 32 -c 2 -a 0 -i 36 -k RTR
r -t 15.856859328 -s 0 -d -1 -p message -e 32 -c 2 -a 0 -i 36 -k RTR
+ -t 24.633895754 -s 3 -d -1 -p message -e 32 -c 2 -a 0 -i 38 -k RTR 
- -t 24.633895754 -s 3 -d -1 -p message -e 32 -c 2 -a 0 -i 38 -k RTR
h -t 24.633895754 -s 3 -d -1 -p message -e 32 -c 2 -a 0 -i 38 -k RTR
+ -t 24.634550754 -s 3 -d -1 -p message -e 90 -c 2 -a 0 -i 38 -k MAC 
- -t 24.634550754 -s 3 -d -1 -p message -e 90 -c 2 -a 0 -i 38 -k MAC
h -t 24.634550754 -s 3 -d -1 -p message -e 90 -c 2 -a 0 -i 38 -k MAC
r -t 24.635271316 -s 6 -d -1 -p message -e 32 -c 2 -a 0 -i 38 -k MAC
r -t 24.635296316 -s 6 -d -1 -p message -e 32 -c 2 -a 0 -i 38 -k RTR
+ -t 24.900361208 -s 5 -d -1 -p message -e 44 -c 2 -a 0 -i 40 -k RTR 
- -t 24.900361208 -s 5 -d -1 -p message -e 44 -c 2 -a 0 -i 40 -k RTR
h -t 24.900361208 -s 5 -d -1 -p message -e 44 -c 2 -a 0 -i 40 -k RTR
+ -t 24.900676208 -s 5 -d -1 -p message -e 102 -c 2 -a 0 -i 40 -k MAC 
- -t 24.900676208 -s 5 -d -1 -p message -e 102 -c 2 -a 0 -i 40 -k MAC
h -t 24.900676208 -s 5 -d -1 -p message -e 102 -c 2 -a 0 -i 40 -k MAC
r -t 24.901492530 -s 9 -d -1 -p message -e 44 -c 2 -a 0 -i 40 -k MAC
r -t 24.901493002 -s 0 -d -1 -p message -e 44 -c 2 -a 0 -i 40 -k MAC
r -t 24.901517530 -s 9 -d -1 -p message -e 44 -c 2 -a 0 -i 40 -k RTR
r -t 24.901518002 -s 0 -d -1 -p message -e 44 -c 2 -a 0 -i 40 -k RTR
+ -t 24.902397812 -s 9 -d -1 -p message -e 56 -c 2 -a 0 -i 39 -k RTR 
- -t 24.902397812 -s 9 -d -1 -p message -e 56 -c 2 -a 0 -i 39 -k RTR
h -t 24.902397812 -s 9 -d -1 -p message -e 56 -c 2 -a 0 -i 39 -k RTR
+ -t 24.902572812 -s 9 -d -1 -p message -e 114 -c 2 -a 0 -i 39 -k MAC 
- -t 24.902572812 -s 9 -d -1 -p message -e 114 -c 2 -a 0 -i 39 -k MAC
h -t 24.902572812 -s 9 -d -1 -p message -e 114 -c 2 -a 0 -i 39 -k MAC
r -t 24.903485135 -s 5 -d -1 -p message -e 56 -c 2 -a 0 -i 39 -k MAC
r -t 24.903485532 -s 0 -d -1 -p message -e 56 -c 2 -a 0 -i 39 -k MAC
r -t 24.903510135 -s 5 -d -1 -p message -e 56 -c 2 -a 0 -i 39 -k RTR
r -t 24.903510532 -s 0 -d -1 -p message -e 56 -c 2 -a 0 -i 39 -k RTR
+ -t 25.007287011 -s 2 -d -1 -p message -e 56 -c 2 -a 0 -i 41 -k RTR 
- -t 25.007287011 -s 2 -d -1 -p message -e 56 -c 2 -a 0 -i 41 -k RTR
h -t 25.007287011 -s 2 -d -1 -p message -e 56 -c 2 -a 0 -i 41 -k RTR
+ -t 25.007862011 -s 2 -d -1 -p message -e 114 -c 2 -a 0 -i 41 -k MAC 
- -t 25.007862011 -s 2 -d -1 -p message -e 114 -c 2 -a 0 -i 41 -k MAC
h -t 25.007862011 -s 2 -d -1 -p message -e 114 -c 2 -a 0 -i 41 -k MAC
r -t 25.008774220 -s 4 -d -1 -p message -e 56 -c 2 -a 0 -i 41 -k MAC
r -t 25.008774307 -s 1 -d -1 -p message -e 56 -c 2 -a 0 -i 41 -k MAC
r -t 25.008774833 -s 0 -d -1 -p message -e 56 -c 2 -a 0 -i 41 -k MAC
r -t 25.008799220 -s 4 -d -1 -p message -e 56 -c 2 -a 0 -i 41 -k RTR
r -t 25.008799307 -s 1 -d -1 -p message -e 56 -c 2 -a 0 -i 41 -k RTR
r -t 25.008799833 -s 0 -d -1 -p message -e 56 -c 2 -a 0 -i 41 -k RTR
+ -t 25.261688568 -s 1 -d -1 -p message -e 44 -c 2 -a 0 -i 42 -k RTR 
- -t 25.261688568 -s 1 -d -1 -p message -e 44 -c 2 -a 0 -i 42 -k RTR
h -t 25.261688568 -s 1 -d -1 -p message -e 44 -c 2 -a 0 -i 42 -k RTR
+ -t 25.262123568 -s 1 -d -1 -p message -e 102 -c 2 -a 0 -i 42 -k MAC 
- -t 25.262123568 -s 1 -d -1 -p message -e 102 -c 2 -a 0 -i 42 -k MAC
h -t 25.262123568 -s 1 -d -1 -p message -e 102 -c 2 -a 0 -i 42 -k MAC
r -t 25.262939777 -s 4 -d -1 -p message -e 44 -c 2 -a 0 -i 42 -k MAC