s 0.003769945 _0_ RTR  --- 0 message 32 [0 0 0 0] ------- [0:255 -1:255 32 0] 
s 0.003884945 _0_ MAC  --- 0 message 90 [0 ffffffff 0 800] ------- [0:255 -1:255 32 0] 
r 0.004605567 _1_ MAC  --- 0 message 32 [0 ffffffff 0 800] ------- [0:255 -1:255 32 0] 
r 0.004605646 _9_ MAC  --- 0 message 32 [0 ffffffff 0 800] ------- [0:255 -1:255 32 0] 
r 0.004605736 _5_ MAC  --- 0 message 32 [0 ffffffff 0 800] ------- [0:255 -1:255 32 0] 
r 0.004605775 _4_ MAC  --- 0 message 32 [0 ffffffff 0 800] ------- [0:255 -1:255 32 0] 
r 0.004630567 _1_ RTR  --- 0 message 32 [0 ffffffff 0 800] ------- [0:255 -1:255 32 0] 
r 0.004630646 _9_ RTR  --- 0 message 32 [0 ffffffff 0 800] ------- [0:255 -1:255 32 0] 
r 0.004630736 _5_ RTR  --- 0 message 32 [0 ffffffff 0 800] ------- [0:255 -1:255 32 0] 
r 0.004630775 _4_ RTR  --- 0 message 32 [0 ffffffff 0 800] ------- [0:255 -1:255 32 0] 
s 0.034809998 _2_ RTR  --- 1 message 32 [0 0 0 0] ------- [2:255 -1:255 32 0] 
s 0.035124998 _2_ MAC  --- 1 message 90 [0 ffffffff 2 800] ------- [2:255 -1:255 32 0] 
r 0.035845212 _4_ MAC  --- 1 message 32 [0 ffffffff 2 800] ------- [2:255 -1:255 32 0] 
r 0.035845272 _1_ MAC  --- 1 message 32 [0 ffffffff 2 800] ------- [2:255 -1:255 32 0] 
r 0.035870212 _4_ RTR  --- 1 message 32 [0 ffffffff 2 800] ------- [2:255 -1:255 32 0] 
r 0.035870272 _1_ RTR  --- 1 message 32 [0 ffffffff 2 800] ------- [2:255 -1:255 32 0] 
s 0.177993395 _3_ RTR  --- 2 message 32 [0 0 0 0] ------- [3:255 -1:255 32 0] 
s 0.178388395 _3_ MAC  --- 2 message 90 [0 ffffffff 3 800] ------- [3:255 -1:255 32 0] 
r 0.179108963 _6_ MAC  --- 2 message 32 [0 ffffffff 3 800] ------- [3:255 -1:255 32 0] 
r 0.179133963 _6_ RTR  --- 2 message 32 [0 ffffffff 3 800] ------- [3:255 -1:255 32 0] 
s 0.471784383 _8_ RTR  --- 3 message 32 [0 0 0 0] ------- [8:255 -1:255 32 0] 
s 0.472099383 _8_ MAC  --- 3 message 90 [0 ffffffff 8 800] ------- [8:255 -1:255 32 0] 
s 0.632846612 _6_ RTR  --- 4 message 32 [0 0 0 0] ------- [6:255 -1:255 32 0] 
s 0.633321612 _6_ MAC  --- 4 message 90 [0 ffffffff 6 800] ------- [6:255 -1:255 32 0] 
r 0.634042179 _3_ MAC  --- 4 message 32 [0 ffffffff 6 800] ------- [6:255 -1:255 32 0] 
r 0.634042248 _7_ MAC  --- 4 message 32 [0 ffffffff 6 800] ------- [6:255 -1:255 32 0] 
r 0.634067179 _3_ RTR  --- 4 message 32 [0 ffffffff 6 800] ------- [6:255 -1:255 32 0] 
r 0.634067248 _7_ RTR  --- 4 message 32 [0 ffffffff 6 800] ------- [6:255 -1:255 32 0] 
s 0.884759020 _4_ RTR  --- 5 message 32 [0 0 0 0] ------- [4:255 -1:255 32 0] 
s 0.885134020 _4_ MAC  --- 5 message 90 [0 ffffffff 4 800] ------- [4:255 -1:255 32 0] 
r 0.885854229 _1_ MAC  --- 5 message 32 [0 ffffffff 4 800] ------- [4:255 -1:255 32 0] 
r 0.885854234 _2_ MAC  --- 5 message 32 [0 ffffffff 4 800] ------- [4:255 -1:255 32 0] 
r 0.885854850 _0_ MAC  --- 5 message 32 [0 ffffffff 4 800] ------- [4:255 -1:255 32 0] 
r 0.885879229 _1_ RTR  --- 5 message 32 [0 ffffffff 4 800] ------- [4:255 -1:255 32 0] 
r 0.885879234 _2_ RTR  --- 5 message 32 [0 ffffffff 4 800] ------- [4:255 -1:255 32 0] 
r 0.885879850 _0_ RTR  --- 5 message 32 [0 ffffffff 4 800] ------- [4:255 -1:255 32 0] 
s 1.120810887 _1_ RTR  --- 6 message 32 [0 0 0 0] ------- [1:255 -1:255 32 0] 
s 1.121165887 _1_ MAC  --- 6 message 90 [0 ffffffff 1 800] ------- [1:255 -1:255 32 0] 
r 1.121886095 _4_ MAC  --- 6 message 32 [0 ffffffff 1 800] ------- [1:255 -1:255 32 0] 
r 1.121886161 _2_ MAC  --- 6 message 32 [0 ffffffff 1 800] ------- [1:255 -1:255 32 0] 
r 1.121886508 _0_ MAC  --- 6 message 32 [0 ffffffff 1 800] ------- [1:255 -1:255 32 0] 
r 1.121911095 _4_ RTR  --- 6 message 32 [0 ffffffff 1 800] ------- [1:255 -1:255 32 0] 
r 1.121911161 _2_ RTR  --- 6 message 32 [0 ffffffff 1 800] ------- [1:255 -1:255 32 0] 
r 1.121911508 _0_ RTR  --- 6 message 32 [0 ffffffff 1 800] ------- [1:255 -1:255 32 0] 
s 1.279603939 _9_ RTR  --- 7 message 32 [0 0 0 0] ------- [9:255 -1:255 32 0] 
s 1.279898939 _9_ MAC  --- 7 message 90 [0 ffffffff 9 800] ------- [9:255 -1:255 32 0] 
r 1.280619244 _5_ MAC  --- 7 message 32 [0 ffffffff 9 800] ------- [9:255 -1:255 32 0] 
r 1.280619640 _0_ MAC  --- 7 message 32 [0 ffffffff 9 800] ------- [9:255 -1:255 32 0] 
r 1.280644244 _5_ RTR  --- 7 message 32 [0 ffffffff 9 800] ------- [9:255 -1:255 32 0] 
r 1.280644640 _0_ RTR  --- 7 message 32 [0 ffffffff 9 800] ------- [9:255 -1:255 32 0] 
s 1.599431220 _5_ RTR  --- 8 message 32 [0 0 0 0] ------- [5:255 -1:255 32 0] 
s 1.599626220 _5_ MAC  --- 8 message 90 [0 ffffffff 5 800] ------- [5:255 -1:255 32 0] 
r 1.600346526 _9_ MAC  --- 8 message 32 [0 ffffffff 5 800] ------- [5:255 -1:255 32 0] 
r 1.600347011 _0_ MAC  --- 8 message 32 [0 ffffffff 5 800] ------- [5:255 -1:255 32 0] 
r 1.600371526 _9_ RTR  --- 8 message 32 [0 ffffffff 5 800] ------- [5:255 -1:255 32 0] 
r 1.600372011 _0_ RTR  --- 8 message 32 [0 ffffffff 5 800] ------- [5:255 -1:255 32 0] 
s 1.636308730 _7_ RTR  --- 9 message 32 [0 0 0 0] ------- [7:255 -1:255 32 0] 
s 1.636563730 _7_ MAC  --- 9 message 90 [0 ffffffff 7 800] ------- [7:255 -1:255 32 0] 
r 1.637284367 _6_ MAC  --- 9 message 32 [0 ffffffff 7 800] ------- [7:255 -1:255 32 0] 
r 1.637309367 _6_ RTR  --- 9 message 32 [0 ffffffff 7 800] ------- [7:255 -1:255 32 0] 
M 10.00000 0 (514.36, 284.34, 0.00), (296.70, 911.80), 0.01
M 10.00000 1 (643.66, 149.92, 0.00), (332.51, 13.94), 0.82
M 10.00000 2 (725.97, 148.70, 0.00), (410.03, 227.82), 0.35
M 10.00000 3 (665.33, 725.17, 0.00), (664.56, 587.74), 0.31
M 10.00000 4 (682.88, 101.17, 0.00), (228.96, 346.94), 0.28
M 10.00000 5 (366.60, 469.97, 0.00), (613.92, 774.60), 0.35
M 10.00000 6 (835.60, 721.86, 0.00), (328.45, 734.38), 0.12
M 10.00000 7 (937.16, 560.16, 0.00), (87.78, 627.89), 0.78
M 10.00000 8 (2.25, 360.67, 0.00), (164.88, 626.71), 0.42
M 10.00000 9 (456.68, 486.65, 0.00), (833.66, 878.62), 0.75
s 11.712176986 _2_ RTR  --- 10 message 32 [0 0 0 0] ------- [2:255 -1:255 32 0] 
s 11.712471986 _2_ MAC  --- 10 message 90 [0 ffffffff 2 800] ------- [2:255 -1:255 32 0] 
r 11.713192199 _4_ MAC  --- 10 message 32 [0 ffffffff 2 800] ------- [2:255 -1:255 32 0] 
r 11.713192262 _1_ MAC  --- 10 message 32 [0 ffffffff 2 800] ------- [2:255 -1:255 32 0] 
r 11.713217199 _4_ RTR  --- 10 message 32 [0 ffffffff 2 800] ------- [2:255 -1:255 32 0] 
r 11.713217262 _1_ RTR  --- 10 message 32 [0 ffffffff 2 800] ------- [2:255 -1:255 32 0] 
s 11.784814444 _3_ RTR  --- 11 message 32 [0 0 0 0] ------- [3:255 -1:255 32 0] 
s 11.784969444 _3_ MAC  --- 11 message 90 [0 ffffffff 3 800] ------- [3:255 -1:255 32 0] 
r 11.785690011 _6_ MAC  --- 11 message 32 [0 ffffffff 3 800] ------- [3:255 -1:255 32 0] 
r 11.785715011 _6_ RTR  --- 11 message 32 [0 ffffffff 3 800] ------- [3:255 -1:255 32 0] 
s 12.006492709 _1_ RTR  --- 12 message 32 [0 0 0 0] ------- [1:255 -1:255 32 0] 
s 12.006587709 _1_ MAC  --- 12 message 90 [0 ffffffff 1 800] ------- [1:255 -1:255 32 0] 
r 12.007307918 _4_ MAC  --- 12 message 32 [0 ffffffff 1 800] ------- [1:255 -1:255 32 0] 
r 12.007307986 _2_ MAC  --- 12 message 32 [0 ffffffff 1 800] ------- [1:255 -1:255 32 0] 
r 12.007308329 _0_ MAC  --- 12 message 32 [0 ffffffff 1 800] ------- [1:255 -1:255 32 0] 
r 12.007332918 _4_ RTR  --- 12 message 32 [0 ffffffff 1 800] ------- [1:255 -1:255 32 0] 
r 12.007332986 _2_ RTR  --- 12 message 32 [0 ffffffff 1 800] ------- [1:255 -1:255 32 0] 
r 12.007333329 _0_ RTR  --- 12 message 32 [0 ffffffff 1 800] ------- [1:255 -1:255 32 0] 
s 12.012357732 _4_ RTR  --- 15 message 32 [0 0 0 0] ------- [4:255 -1:255 32 0] 
s 12.012480517 _9_ RTR  --- 13 message 32 [0 0 0 0] ------- [9:255 -1:255 32 0] 
s 12.012672732 _4_ MAC  --- 15 message 90 [0 ffffffff 4 800] ------- [4:255 -1:255 32 0] 
r 12.013392940 _1_ MAC  --- 15 message 32 [0 ffffffff 4 800] ------- [4:255 -1:255 32 0] 
r 12.013392945 _2_ MAC  --- 15 message 32 [0 ffffffff 4 800] ------- [4:255 -1:255 32 0] 
r 12.013393560 _0_ MAC  --- 15 message 32 [0 ffffffff 4 800] ------- [4:255 -1:255 32 0] 
r 12.013417940 _1_ RTR  --- 15 message 32 [0 ffffffff 4 800] ------- [4:255 -1:255 32 0] 
r 12.013417945 _2_ RTR  --- 15 message 32 [0 ffffffff 4 800] ------- [4:255 -1:255 32 0] 
r 12.013418560 _0_ RTR  --- 15 message 32 [0 ffffffff 4 800] ------- [4:255 -1:255 32 0] 
s 12.013828222 _9_ MAC  --- 13 message 90 [0 ffffffff 9 800] ------- [9:255 -1:255 32 0] 
s 12.014098898 _5_ RTR  --- 14 message 32 [0 0 0 0] ------- [5:255 -1:255 32 0] 
r 12.014548529 _5_ MAC  --- 13 message 32 [0 ffffffff 9 800] ------- [9:255 -1:255 32 0] 
r 12.014548925 _0_ MAC  --- 13 message 32 [0 ffffffff 9 800] ------- [9:255 -1:255 32 0] 
r 12.014573529 _5_ RTR  --- 13 message 32 [0 ffffffff 9 800] ------- [9:255 -1:255 32 0] 
r 12.014573925 _0_ RTR  --- 13 message 32 [0 ffffffff 9 800] ------- [9:255 -1:255 32 0] 
s 12.014638529 _5_ MAC  --- 14 message 90 [0 ffffffff 5 800] ------- [5:255 -1:255 32 0] 
r 12.015358837 _9_ MAC  --- 14 message 32 [0 ffffffff 5 800] ------- [5:255 -1:255 32 0] 
r 12.015359321 _0_ MAC  --- 14 message 32 [0 ffffffff 5 800] ------- [5:255 -1:255 32 0] 
r 12.015383837 _9_ RTR  --- 14 message 32 [0 ffffffff 5 800] ------- [5:255 -1:255 32 0] 
r 12.015384321 _0_ RTR  --- 14 message 32 [0 ffffffff 5 800] ------- [5:255 -1:255 32 0] 
s 12.639396234 _7_ RTR  --- 17 message 32 [0 0 0 0] ------- [7:255 -1:255 32 0] 
s 12.639571234 _7_ MAC  --- 17 message 90 [0 ffffffff 7 800] ------- [7:255 -1:255 32 0] 
r 12.640291867 _6_ MAC  --- 17 message 32 [0 ffffffff 7 800] ------- [7:255 -1:255 32 0] 
r 12.640316867 _6_ RTR  --- 17 message 32 [0 ffffffff 7 800] ------- [7:255 -1:255 32 0] 
s 12.780148049 _3_ RTR  --- 18 message 32 [0 0 0 0] ------- [3:255 -1:255 32 0] 
s 12.780423049 _3_ MAC  --- 18 message 90 [0 ffffffff 3 800] ------- [3:255 -1:255 32 0] 
r 12.781143615 _6_ MAC  --- 18 message 32 [0 ffffffff 3 800] ------- [3:255 -1:255 32 0] 
r 12.781168615 _6_ RTR  --- 18 message 32 [0 ffffffff 3 800] ------- [3:255 -1:255 32 0] 
s 12.893159652 _2_ RTR  --- 19 message 32 [0 0 0 0] ------- [2:255 -1:255 32 0] 
s 12.893354652 _2_ MAC  --- 19 message 90 [0 ffffffff 2 800] ------- [2:255 -1:255 32 0] 
r 12.894074865 _4_ MAC  --- 19 message 32 [0 ffffffff 2 800] ------- [2:255 -1:255 32 0] 
r 12.894074930 _1_ MAC  --- 19 message 32 [0 ffffffff 2 800] ------- [2:255 -1:255 32 0] 
r 12.894099865 _4_ RTR  --- 19 message 32 [0 ffffffff 2 800] ------- [2:255 -1:255 32 0] 
r 12.894099930 _1_ RTR  --- 19 message 32 [0 ffffffff 2 800] ------- [2:255 -1:255 32 0] 
s 12.894626313 _0_ RTR  --- 20 message 32 [0 0 0 0] ------- [0:255 -1:255 32 0] 
s 12.895281313 _0_ MAC  --- 20 message 90 [0 ffffffff 0 800] ------- [0:255 -1:255 32 0] 
r 12.896001932 _1_ MAC  --- 20 message 32 [0 ffffffff 0 800] ------- [0:255 -1:255 32 0] 
r 12.896002018 _9_ MAC  --- 20 message 32 [0 ffffffff 0 800] ------- [0:255 -1:255 32 0] 
r 12.896002105 _5_ MAC  --- 20 message 32 [0 ffffffff 0 800] ------- [0:255 -1:255 32 0] 
r 12.896002140 _4_ MAC  --- 20 message 32 [0 ffffffff 0 800] ------- [0:255 -1:255 32 0] 
r 12.896026932 _1_ RTR  --- 20 message 32 [0 ffffffff 0 800] ------- [0:255 -1:255 32 0] 
r 12.896027018 _9_ RTR  --- 20 message 32 [0 ffffffff 0 800] ------- [0:255 -1:255 32 0] 
r 12.896027105 _5_ RTR  --- 20 message 32 [0 ffffffff 0 800] ------- [0:255 -1:255 32 0] 
r 12.896027140 _4_ RTR  --- 20 message 32 [0 ffffffff 0 800] ------- [0:255 -1:255 32 0] 
s 13.010214653 _1_ RTR  --- 21 message 44 [0 0 0 0] ------- [1:255 -1:255 32 0] 
s 13.010829653 _1_ MAC  --- 21 message 102 [0 ffffffff 1 800] ------- [1:255 -1:255 32 0] 
r 13.011645861 _4_ MAC  --- 21 message 44 [0 ffffffff 1 800] ------- [1:255 -1:255 32 0] 
r 13.011645931 _2_ MAC  --- 21 message 44 [0 ffffffff 1 800] ------- [1:255 -1:255 32 0] 
r 13.011646272 _0_ MAC  --- 21 message 44 [0 ffffffff 1 800] ------- [1:255 -1:255 32 0] 
r 13.011670861 _4_ RTR  --- 21 message 44 [0 ffffffff 1 800] ------- [1:255 -1:255 32 0] 
r 13.011670931 _2_ RTR  --- 21 message 44 [0 ffffffff 1 800] ------- [1:255 -1:255 32 0] 
r 13.011671272 _0_ RTR  --- 21 message 44 [0 ffffffff 1 800] ------- [1:255 -1:255 32 0] 
s 13.012786598 _4_ RTR  --- 22 message 32 [0 0 0 0] ------- [4:255 -1:255 32 0] 
s 13.013161598 _4_ MAC  --- 22 message 90 [0 ffffffff 4 800] ------- [4:255 -1:255 32 0] 
r 13.013881806 _1_ MAC  --- 22 message 32 [0 ffffffff 4 800] ------- [4:255 -1:255 32 0] 
r 13.013881811 _2_ MAC  --- 22 message 32 [0 ffffffff 4 800] ------- [4:255 -1:255 32 0] 
r 13.013882425 _0_ MAC  --- 22 message 32 [0 ffffffff 4 800] ------- [4:255 -1:255 32 0] 
r 13.013906806 _1_ RTR  --- 22 message 32 [0 ffffffff 4 800] ------- [4:255 -1:255 32 0] 
r 13.013906811 _2_ RTR  --- 22 message 32 [0 ffffffff 4 800] ------- [4:255 -1:255 32 0] 
r 13.013907425 _0_ RTR  --- 22 message 32 [0 ffffffff 4 800] ------- [4:255 -1:255 32 0] 
s 13.072781990 _5_ RTR  --- 23 message 44 [0 0 0 0] ------- [5:255 -1:255 32 0] 
s 13.073436990 _5_ MAC  --- 23 message 102 [0 ffffffff 5 800] ------- [5:255 -1:255 32 0] 
r 13.074253299 _9_ MAC  --- 23 message 44 [0 ffffffff 5 800] ------- [5:255 -1:255 32 0] 
r 13.074253782 _0_ MAC  --- 23 message 44 [0 ffffffff 5 800] ------- [5:255 -1:255 32 0] 
r 13.074278299 _9_ RTR  --- 23 message 44 [0 ffffffff 5 800] ------- [5:255 -1:255 32 0] 
r 13.074278782 _0_ RTR  --- 23 message 44 [0 ffffffff 5 800] ------- [5:255 -1:255 32 0] 
s 13.255096933 _8_ RTR  --- 24 message 32 [0 0 0 0] ------- [8:255 -1:255 32 0] 
s 13.255611933 _8_ MAC  --- 24 message 90 [0 ffffffff 8 800] ------- [8:255 -1:255 32 0] 
s 13.348242685 _7_ RTR  --- 25 message 44 [0 0 0 0] ------- [7:255 -1:255 32 0] 
s 13.348537685 _7_ MAC  --- 25 message 102 [0 ffffffff 7 800] ------- [7:255 -1:255 32 0] 
r 13.349354318 _6_ MAC  --- 25 message 44 [0 ffffffff 7 800] ------- [7:255 -1:255 32 0] 
r 13.349379318 _6_ RTR  --- 25 message 44 [0 ffffffff 7 800] ------- [7:255 -1:255 32 0] 
s 13.609184100 _9_ RTR  --- 26 message 32 [0 0 0 0] ------- [9:255 -1:255 32 0] 
s 13.609619100 _9_ MAC  --- 26 message 90 [0 ffffffff 9 800] ------- [9:255 -1:255 32 0] 
r 13.610339410 _5_ MAC  --- 26 message 32 [0 ffffffff 9 800] ------- [9:255 -1:255 32 0] 
r 13.610339806 _0_ MAC  --- 26 message 32 [0 ffffffff 9 800] ------- [9:255 -1:255 32 0] 
r 13.610364410 _5_ RTR  --- 26 message 32 [0 ffffffff 9 800] ------- [9:255 -1:255 32 0] 
r 13.610364806 _0_ RTR  --- 26 message 32 [0 ffffffff 9 800] ------- [9:255 -1:255 32 0] 
s 13.884170161 _1_ RTR  --- 28 message 56 [0 0 0 0] ------- [1:255 -1:255 32 0] 
s 13.884565161 _1_ MAC  --- 28 message 114 [0 ffffffff 1 800] ------- [1:255 -1:255 32 0] 
r 13.885477370 _4_ MAC  --- 28 message 56 [0 ffffffff 1 800] ------- [1:255 -1:255 32 0] 
r 13.885477441 _2_ MAC  --- 28 message 56 [0 ffffffff 1 800] ------- [1:255 -1:255 32 0] 
r 13.885477780 _0_ MAC  --- 28 message 56 [0 ffffffff 1 800] ------- [1:255 -1:255 32 0] 
r 13.885502370 _4_ RTR  --- 28 message 56 [0 ffffffff 1 800] ------- [1:255 -1:255 32 0] 
r 13.885502441 _2_ RTR  --- 28 message 56 [0 ffffffff 1 800] ------- [1:255 -1:255 32 0] 
r 13.885502780 _0_ RTR  --- 28 message 56 [0 ffffffff 1 800] ------- [1:255 -1:255 32 0] 
s 13.891087319 _0_ RTR  --- 30 message 44 [0 0 0 0] ------- [0:255 -1:255 32 0] 
s 13.891262319 _0_ MAC  --- 30 message 102 [0 ffffffff 0 800] ------- [0:255 -1:255 32 0] 
r 13.892078937 _1_ MAC  --- 30 message 44 [0 ffffffff 0 800] ------- [0:255 -1:255 32 0] 
r 13.892079025 _9_ MAC  --- 30 message 44 [0 ffffffff 0 800] ------- [0:255 -1:255 32 0] 
r 13.892079111 _5_ MAC  --- 30 message 44 [0 ffffffff 0 800] ------- [0:255 -1:255 32 0] 
r 13.892079145 _4_ MAC  --- 30 message 44 [0 ffffffff 0 800] ------- [0:255 -1:255 32 0] 
r 13.892103937 _1_ RTR  --- 30 message 44 [0 ffffffff 0 800] ------- [0:255 -1:255 32 0] 
r 13.892104025 _9_ RTR  --- 30 message 44 [0 ffffffff 0 800] ------- [0:255 -1:255 32 0] 
r 13.892104111 _5_ RTR  --- 30 message 44 [0 ffffffff 0 800] ------- [0:255 -1:255 32 0] 
r 13.892104145 _4_ RTR  --- 30 message 44 [0 ffffffff 0 800] ------- [0:255 -1:255 32 0] 
s 13.893775518 _2_ RTR  --- 29 message 32 [0 0 0 0] ------- [2:255 -1:255 32 0] 
s 13.893910518 _2_ MAC  --- 29 message 90 [0 ffffffff 2 800] ------- [2:255 -1:255 32 0] 
r 13.894630731 _4_ MAC  --- 29 message 32 [0 ffffffff 2 800] ------- [2:255 -1:255 32 0] 
r 13.894630798 _1_ MAC  --- 29 message 32 [0 ffffffff 2 800] ------- [2:255 -1:255 32 0] 
r 13.894655731 _4_ RTR  --- 29 message 32 [0 ffffffff 2 800] ------- [2:255 -1:255 32 0] 
r 13.894655798 _1_ RTR  --- 29 message 32 [0 ffffffff 2 800] ------- [2:255 -1:255 32 0] 
s 14.009002996 _4_ RTR  --- 31 message 32 [0 0 0 0] ------- [4:255 -1:255 32 0] 
s 14.009497996 _4_ MAC  --- 31 message 90 [0 ffffffff 4 800] ------- [4:255 -1:255 32 0] 
r 14.010218205 _1_ MAC  --- 31 message 32 [0 ffffffff 4 800] ------- [4:255 -1:255 32 0] 
r 14.010218209 _2_ MAC  --- 31 message 32 [0 ffffffff 4 800] ------- [4:255 -1:255 32 0] 
r 14.010218823 _0_ MAC  --- 31 message 32 [0 ffffffff 4 800] ------- [4:255 -1:255 32 0] 
r 14.010243205 _1_ RTR  --- 31 message 32 [0 ffffffff 4 800] ------- [4:255 -1:255 32 0] 
r 14.010243209 _2_ RTR  --- 31 message 32 [0 ffffffff 4 800] ------- [4:255 -1:255 32 0] 
r 14.010243823 _0_ RTR  --- 31 message 32 [0 ffffffff 4 800] ------- [4:255 -1:255 32 0] 
s 14.076314907 _5_ RTR  --- 32 message 32 [0 0 0 0] ------- [5:255 -1:255 32 0] 
s 14.076449907 _5_ MAC  --- 32 message 90 [0 ffffffff 5 800] ------- [5:255 -1:255 32 0] 
r 14.077170217 _9_ MAC  --- 32 message 32 [0 ffffffff 5 800] ------- [5:255 -1:255 32 0] 
r 14.077170698 _0_ MAC  --- 32 message 32 [0 ffffffff 5 800] ------- [5:255 -1:255 32 0] 
r 14.077195217 _9_ RTR  --- 32 message 32 [0 ffffffff 5 800] ------- [5:255 -1:255 32 0] 
r 14.077195698 _0_ RTR  --- 32 message 32 [0 ffffffff 5 800] ------- [5:255 -1:255 32 0] 
s 14.391121742 _0_ RTR  --- 33 message 56 [0 0 0 0] ------- [0:255 -1:255 32 0] 
s 14.391576742 _0_ MAC  --- 33 message 114 [0 ffffffff 0 800] ------- [0:255 -1:255 32 0] 
r 14.392489360 _1_ MAC  --- 33 message 56 [0 ffffffff 0 800] ------- [0:255 -1:255 32 0] 
r 14.392489448 _9_ MAC  --- 33 message 56 [0 ffffffff 0 800] ------- [0:255 -1:255 32 0] 
r 14.392489534 _5_ MAC  --- 33 message 56 [0 ffffffff 0 800] ------- [0:255 -1:255 32 0] 
r 14.392489568 _4_ MAC  --- 33 message 56 [0 ffffffff 0 800] ------- [0:255 -1:255 32 0] 
r 14.392489575 _2_ MAC  --- 33 message 56 [0 ffffffff 0 800] ------- [0:255 -1:255 32 0] 
r 14.392514360 _1_ RTR  --- 33 message 56 [0 ffffffff 0 800] ------- [0:255 -1:255 32 0] 
r 14.392514448 _9_ RTR  --- 33 message 56 [0 ffffffff 0 800] ------- [0:255 -1:255 32 0] 
r 14.392514534 _5_ RTR  --- 33 message 56 [0 ffffffff 0 800] ------- [0:255 -1:255 32 0] 
r 14.392514568 _4_ RTR  --- 33 message 56 [0 ffffffff 0 800] ------- [0:255 -1:255 32 0] 
r 14.392514575 _2_ RTR  --- 33 message 56 [0 ffffffff 0 800] ------- [0:255 -1:255 32 0] 
s 15.117643855 _6_ RTR  --- 34 message 32 [0 0 0 0] ------- [6:255 -1:255 32 0] 
s 15.118038855 _6_ MAC  --- 34 message 90 [0 ffffffff 6 800] ------- [6:255 -1:255 32 0] 
r 15.118759421 _3_ MAC  --- 34 message 32 [0 ffffffff 6 800] ------- [6:255 -1:255 32 0] 
r 15.118759485 _7_ MAC  --- 34 message 32 [0 ffffffff 6 800] ------- [6:255 -1:255 32 0] 
r 15.118784421 _3_ RTR  --- 34 message 32 [0 ffffffff 6 800] ------- [6:255 -1:255 32 0] 
r 15.118784485 _7_ RTR  --- 34 message 32 [0 ffffffff 6 800] ------- [6:255 -1:255 32 0] 
s 15.326351741 _4_ RTR  --- 35 message 32 [0 0 0 0] ------- [4:255 -1:255 32 0] 
s 15.326566741 _4_ MAC  --- 35 message 90 [0 ffffffff 4 800] ------- [4:255 -1:255 32 0] 
r 15.327286949 _1_ MAC  --- 35 message 32 [0 ffffffff 4 800] ------- [4:255 -1:255 32 0] 
r 15.327286953 _2_ MAC  --- 35 message 32 [0 ffffffff 4 800] ------- [4:255 -1:255 32 0] 
r 15.327287566 _0_ MAC  --- 35 message 32 [0 ffffffff 4 800] ------- [4:255 -1:255 32 0] 
r 15.327311949 _1_ RTR  --- 35 message 32 [0 ffffffff 4 800] ------- [4:255 -1:255 32 0] 
r 15.327311953 _2_ RTR  --- 35 message 32 [0 ffffffff 4 800] ------- [4:255 -1:255 32 0] 
r 15.327312566 _0_ RTR  --- 35 message 32 [0 ffffffff 4 800] ------- [4:255 -1:255 32 0] 
s 15.856038620 _9_ RTR  --- 36 message 32 [0 0 0 0] ------- [9:255 -1:255 32 0] 
s 15.856113620 _9_ MAC  --- 36 message 90 [0 ffffffff 9 800] ------- [9:255 -1:255 32 0] 
r 15.856833932 _5_ MAC  --- 36 message 32 [0 ffffffff 9 800] ------- [9:255 -1:255 32 0] 
r 15.856834328 _0_ MAC  --- 36 message 32 [0 ffffffff 9 800] ------- [9:255 -1:255 32 0] 
r 15.856858932 _5_ RTR  --- 36 message 32 [0 ffffffff 9 800] ------- [9:255 -1:255 32 0] 
r 15.856859328 _0_ RTR  --- 36 message 32 [0 ffffffff 9 800] ------- [9:255 -1:255 32 0] 
s 24.633895754 _3_ RTR  --- 38 message 32 [0 0 0 0] ------- [3:255 -1:255 32 0] 
s 24.634550754 _3_ MAC  --- 38 message 90 [0 ffffffff 3 800] ------- [3:255 -1:255 32 0] 
r 24.635271316 _6_ MAC  --- 38 message 32 [0 ffffffff 3 800] ------- [3:255 -1:255 32 0] 
r 24.635296316 _6_ RTR  --- 38 message 32 [0 ffffffff 3 800] ------- [3:255 -1:255 32 0] 
s 24.900361208 _5_ RTR  --- 40 message 44 [0 0 0 0] ------- [5:255 -1:255 32 0] 
s 24.900676208 _5_ MAC  --- 40 message 102 [0 ffffffff 5 800] ------- [5:255 -1:255 32 0] 
r 24.901492530 _9_ MAC  --- 40 message 44 [0 ffffffff 5 800] ------- [5:255 -1:255 32 0] 
r 24.901493002 _0_ MAC  --- 40 message 44 [0 ffffffff 5 800] ------- [5:255 -1:255 32 0] 
r 24.901517530 _9_ RTR  --- 40 message 44 [0 ffffffff 5 800] ------- [5:255 -1:255 32 0] 
r 24.901518002 _0_ RTR  --- 40 message 44 [0 ffffffff 5 800] ------- [5:255 -1:255 32 0] 
s 24.902397812 _9_ RTR  --- 39 message 56 [0 0 0 0] ------- [9:255 -1:255 32 0] 
s 24.902572812 _9_ MAC  --- 39 message 114 [0 ffffffff 9 800] ------- [9:255 -1:255 32 0] 
r 24.903485135 _5_ MAC  --- 39 message 56 [0 ffffffff 9 800] ------- [9:255 -1:255 32 0] 
r 24.903485532 _0_ MAC  --- 39 message 56 [0 ffffffff 9 800] ------- [9:255 -1:255 32 0] 
r 24.903510135 _5_ RTR  --- 39 message 56 [0 ffffffff 9 800] ------- [9:255 -1:255 32 0] 
r 24.903510532 _0_ RTR  --- 39 message 56 [0 ffffffff 9 800] ------- [9:255 -1:255 32 0] 
s 25.007287011 _2_ RTR  --- 41 message 56 [0 0 0 0] ------- [2:255 -1:255 32 0] 
s 25.007862011 _2_ MAC  --- 41 message 114 [0 ffffffff 2 800] ------- [2:255 -1:255 32 0] 
r 25.008774220 _4_ MAC  --- 41 message 56 [0 ffffffff 2 800] ------- [2:255 -1:255 32 0] 
r 25.008774307 _1_ MAC  --- 41 message 56 [0 ffffffff 2 800] ------- [2:255 -1:255 32 0] 
r 25.008774833 _0_ MAC  --- 41 message 56 [0 ffffffff 2 800] ------- [2:255 -1:255 32 0] 
r 25.008799220 _4_ RTR  --- 41 message 56 [0 ffffffff 2 800] ------- [2:255 -1:255 32 0] 
r 25.008799307 _1_ RTR  --- 41 message 56 [0 ffffffff 2 800] ------- [2:255 -1:255 32 0] 
r 25.008799833 _0_ RTR  --- 41 message 56 [0 ffffffff 2 800] ------- [2:255 -1:255 32 0] 
s 25.261688568 _1_ RTR  --- 42 message 44 [0 0 0 0] ------- [1:255 -1:255 32 0] 
s 25.262123568 _1_ MAC  --- 42 message 102 [0 ffffffff 1 800] ------- [1:255 -1:255 32 0] 
r 25.262939777 _4_ MAC  --- 42 message 44 [0 ffffffff 1 800] ------- [1:255 -1:255 32 0] 
r 25.262939864 _2_ MAC  --- 42 message 44 [0 ffffffff 1 800] ------- [1:255 -1:255 32 0] 
r 25.262940177 _0_ MAC  --- 42 message 44 [0 ffffffff 1 800] ------- [1:255 -1:255 32 0] 
r 25.262964777 _4_ RTR  --- 42 message 44 [0 ffffffff 1 800] ------- [1:255 -1:255 32 0] 
r 25.262964864 _2_ RTR  --- 42 message 44 [0 ffffffff 1 800] ------- [1:255 -1:255 32 0] 
r 25.262965177 _0_ RTR  --- 42 message 44 [0 ffffffff 1 800] ------- [1:255 -1:255 32 0] 
s 25.561746129 _1_ AGT  --- 43 cbr 512 [0 0 0 0] ------- [1:0 2:0 32 0] [0] 0 1
r 25.561746129 _1_ RTR  --- 43 cbr 512 [0 0 0 0] ------- [1:0 2:0 32 0] [0] 0 1
s 25.561746129 _1_ RTR  --- 43 cbr 532 [0 0 0 0] ------- [1:0 2:0 32 2] [0] 0 1
s 25.562401129 _1_ MAC  --- 0 ARP 86 [0 ffffffff 1 806] ------- [REQUEST 1/1 0/2]
r 25.563089338 _4_ MAC  --- 0 ARP 28 [0 ffffffff 1 806] ------- [REQUEST 1/1 0/2]
r 25.563089425 _2_ MAC  --- 0 ARP 28 [0 ffffffff 1 806] ------- [REQUEST 1/1 0/2]
r 25.563089738 _0_ MAC  --- 0 ARP 28 [0 ffffffff 1 806] ------- [REQUEST 1/1 0/2]
s 25.563684425 _2_ MAC  --- 0 RTS 44 [52e 1 2 0] 
r 25.564036721 _1_ MAC  --- 0 RTS 44 [52e 1 2 0] 
s 25.564046721 _1_ MAC  --- 0 CTS 38 [3f4 2 0 0] 
r 25.564351017 _2_ MAC  --- 0 CTS 38 [3f4 2 0 0] 
s 25.564361017 _2_ MAC  --- 0 ARP 86 [13a 1 2 806] ------- [REPLY 2/2 1/1]
r 25.565049313 _1_ MAC  --- 0 ARP 28 [13a 1 2 806] ------- [REPLY 2/2 1/1]
s 25.565059313 _1_ MAC  --- 0 ACK 38 [0 2 0 0] 
r 25.565363610 _2_ MAC  --- 0 ACK 38 [0 2 0 0] 
s 25.565953313 _1_ MAC  --- 0 RTS 44 [14ee 2 1 0] 
r 25.566305610 _2_ MAC  --- 0 RTS 44 [14ee 2 1 0] 
s 25.566315610 _2_ MAC  --- 0 CTS 38 [13b4 1 0 0] 
r 25.566619906 _1_ MAC  --- 0 CTS 38 [13b4 1 0 0] 
s 25.566629906 _1_ MAC  --- 43 cbr 590 [13a 2 1 800] ------- [1:0 2:0 32 2] [0] 0 1
r 25.571350202 _2_ MAC  --- 43 cbr 532 [13a 2 1 800] ------- [1:0 2:0 32 2] [0] 1 1
s 25.571360202 _2_ MAC  --- 0 ACK 38 [0 1 0 0] 
r 25.571375202 _2_ AGT  --- 43 cbr 532 [13a 2 1 800] ------- [1:0 2:0 32 2] [0] 1 1
r 25.571664498 _1_ MAC  --- 0 ACK 38 [0 1 0 0] 
s 25.720394009 _5_ RTR  --- 44 message 56 [0 0 0 0] ------- [5:255 -1:255 32 0] 
s 25.720549009 _5_ MAC  --- 44 message 114 [0 ffffffff 5 800] ------- [5:255 -1:255 32 0] 
r 25.721461332 _9_ MAC  --- 44 message 56 [0 ffffffff 5 800] ------- [5:255 -1:255 32 0] 
r 25.721461803 _0_ MAC  --- 44 message 56 [0 ffffffff 5 800] ------- [5:255 -1:255 32 0] 
r 25.721486332 _9_ RTR  --- 44 message 56 [0 ffffffff 5 800] ------- [5:255 -1:255 32 0] 
r 25.721486803 _0_ RTR  --- 44 message 56 [0 ffffffff 5 800] ------- [5:255 -1:255 32 0] 
s 25.740946345 _7_ RTR  --- 45 message 44 [0 0 0 0] ------- [7:255 -1:255 32 0] 
s 25.741341345 _7_ MAC  --- 45 message 102 [0 ffffffff 7 800] ------- [7:255 -1:255 32 0] 
r 25.742157961 _6_ MAC  --- 45 message 44 [0 ffffffff 7 800] ------- [7:255 -1:255 32 0] 
r 25.742182961 _6_ RTR  --- 45 message 44 [0 ffffffff 7 800] ------- [7:255 -1:255 32 0] 
s 25.900649700 _4_ RTR  --- 46 message 44 [0 0 0 0] ------- [4:255 -1:255 32 0] 
s 25.901244700 _4_ MAC  --- 46 message 102 [0 ffffffff 4 800] ------- [4:255 -1:255 32 0] 
r 25.902060909 _2_ MAC  --- 46 message 44 [0 ffffffff 4 800] ------- [4:255 -1:255 32 0] 
r 25.902060909 _1_ MAC  --- 46 message 44 [0 ffffffff 4 800] ------- [4:255 -1:255 32 0] 
r 25.902061516 _0_ MAC  --- 46 message 44 [0 ffffffff 4 800] ------- [4:255 -1:255 32 0] 
r 25.902085909 _2_ RTR  --- 46 message 44 [0 ffffffff 4 800] ------- [4:255 -1:255 32 0] 
r 25.902085909 _1_ RTR  --- 46 message 44 [0 ffffffff 4 800] ------- [4:255 -1:255 32 0] 
r 25.902086516 _0_ RTR  --- 46 message 44 [0 ffffffff 4 800] ------- [4:255 -1:255 32 0] 
s 25.929703787 _1_ AGT  --- 47 cbr 512 [0 0 0 0] ------- [1:0 2:0 32 0] [1] 0 1
r 25.929703787 _1_ RTR  --- 47 cbr 512 [0 0 0 0] ------- [1:0 2:0 32 0] [1] 0 1
s 25.929703787 _1_ RTR  --- 47 cbr 532 [0 0 0 0] ------- [1:0 2:0 32 2] [1] 0 1
s 25.930378787 _1_ MAC  --- 0 RTS 44 [14ee 2 1 0] 
r 25.930731084 _2_ MAC  --- 0 RTS 44 [14ee 2 1 0] 
s 25.930741084 _2_ MAC  --- 0 CTS 38 [13b4 1 0 0] 
r 25.931045381 _1_ MAC  --- 0 CTS 38 [13b4 1 0 0] 
s 25.931055381 _1_ MAC  --- 47 cbr 590 [13a 2 1 800] ------- [1:0 2:0 32 2] [1] 0 1
r 25.935775677 _2_ MAC  --- 47 cbr 532 [13a 2 1 800] ------- [1:0 2:0 32 2] [1] 1 1
s 25.935785677 _2_ MAC  --- 0 ACK 38 [0 1 0 0] 
r 25.935800677 _2_ AGT  --- 47 cbr 532 [13a 2 1 800] ------- [1:0 2:0 32 2] [1] 1 1
r 25.936089974 _1_ MAC  --- 0 ACK 38 [0 1 0 0] 
s 26.102929844 _1_ AGT  --- 48 cbr 512 [0 0 0 0] ------- [1:0 2:0 32 0] [2] 0 1
r 26.102929844 _1_ RTR  --- 48 cbr 512 [0 0 0 0] ------- [1:0 2:0 32 0] [2] 0 1
s 26.102929844 _1_ RTR  --- 48 cbr 532 [0 0 0 0] ------- [1:0 2:0 32 2] [2] 0 1
s 26.103324844 _1_ MAC  --- 0 RTS 44 [14ee 2 1 0] 
r 26.103677141 _2_ MAC  --- 0 RTS 44 [14ee 2 1 0] 
s 26.103687141 _2_ MAC  --- 0 CTS 38 [13b4 1 0 0] 
r 26.103991438 _1_ MAC  --- 0 CTS 38 [13b4 1 0 0] 
s 26.104001438 _1_ MAC  --- 48 cbr 590 [13a 2 1 800] ------- [1:0 2:0 32 2] [2] 0 1
r 26.108721735 _2_ MAC  --- 48 cbr 532 [13a 2 1 800] ------- [1:0 2:0 32 2] [2] 1 1
s 26.108731735 _2_ MAC  --- 0 ACK 38 [0 1 0 0] 
r 26.108746735 _2_ AGT  --- 48 cbr 532 [13a 2 1 800] ------- [1:0 2:0 32 2] [2] 1 1
r 26.109036032 _1_ MAC  --- 0 ACK 38 [0 1 0 0] 
s 26.254381701 _1_ RTR  --- 49 message 44 [0 0 0 0] ------- [1:255 -1:255 32 0] 
s 26.254756701 _1_ MAC  --- 49 message 102 [0 ffffffff 1 800] ------- [1:255 -1:255 32 0] 
r 26.255572910 _4_ MAC  --- 49 message 44 [0 ffffffff 1 800] ------- [1:255 -1:255 32 0] 
r 26.255572998 _2_ MAC  --- 49 message 44 [0 ffffffff 1 800] ------- [1:255 -1:255 32 0] 
r 26.255573309 _0_ MAC  --- 49 message 44 [0 ffffffff 1 800] ------- [1:255 -1:255 32 0] 
r 26.255597910 _4_ RTR  --- 49 message 44 [0 ffffffff 1 800] ------- [1:255 -1:255 32 0] 
r 26.255597998 _2_ RTR  --- 49 message 44 [0 ffffffff 1 800] ------- [1:255 -1:255 32 0] 
r 26.255598309 _0_ RTR  --- 49 message 44 [0 ffffffff 1 800] ------- [1:255 -1:255 32 0] 
s 26.257783797 _1_ AGT  --- 50 cbr 512 [0 0 0 0] ------- [1:0 2:0 32 0] [3] 0 1
r 26.257783797 _1_ RTR  --- 50 cbr 512 [0 0 0 0] ------- [1:0 2:0 32 0] [3] 0 1
s 26.257783797 _1_ RTR  --- 50 cbr 532 [0 0 0 0] ------- [1:0 2:0 32 2] [3] 0 1
s 26.258318797 _1_ MAC  --- 0 RTS 44 [14ee 2 1 0] 
r 26.258671094 _2_ MAC  --- 0 RTS 44 [14ee 2 1 0] 
s 26.258681094 _2_ MAC  --- 0 CTS 38 [13b4 1 0 0] 
r 26.258985391 _1_ MAC  --- 0 CTS 38 [13b4 1 0 0] 
s 26.258995391 _1_ MAC  --- 50 cbr 590 [13a 2 1 800] ------- [1:0 2:0 32 2] [3] 0 1
r 26.263715688 _2_ MAC  --- 50 cbr 532 [13a 2 1 800] ------- [1:0 2:0 32 2] [3] 1 1
s 26.263725688 _2_ MAC  --- 0 ACK 38 [0 1 0 0] 
r 26.263740688 _2_ AGT  --- 50 cbr 532 [13a 2 1 800] ------- [1:0 2:0 32 2] [3] 1 1
r 26.264029986 _1_ MAC  --- 0 ACK 38 [0 1 0 0] 
s 26.400815029 _2_ RTR  --- 51 message 44 [0 0 0 0] ------- [2:255 -1:255 32 0] 
s 26.400970029 _2_ MAC  --- 51 message 102 [0 ffffffff 2 800] ------- [2:255 -1:255 32 0] 
r 26.401786238 _4_ MAC  --- 51 message 44 [0 ffffffff 2 800] ------- [2:255 -1:255 32 0] 
r 26.401786326 _1_ MAC  --- 51 message 44 [0 ffffffff 2 800] ------- [2:255 -1:255 32 0] 